# Solver information
# Time        	U_solver      	Ux_initial    	Ux_final      	Ux_iters      	Uy_initial    	Uy_final      	Uy_iters      	U_converged   	k_solver      	k_initial     	k_final       	k_iters       	k_converged   	p_solver      	p_initial     	p_final       	p_iters       	p_converged   	gammaInt_solver	gammaInt_initial	gammaInt_final	gammaInt_iters	gammaInt_converged	omega_solver  	omega_initial 	omega_final   	omega_iters   	omega_converged	ReThetat_solver	ReThetat_initial	ReThetat_final	ReThetat_iters	ReThetat_converged
1             	DILUPBiCGStab	1.000000e+00	1.903710e-03	1	1.000000e+00	1.860990e-03	1	false	DILUPBiCGStab	1.000000e+00	1.179890e-03	2	true	GAMG	1.000000e+00	6.713950e-03	20	true	DILUPBiCGStab	1.000000e+00	3.598030e-03	1	true	DILUPBiCGStab	2.047950e-02	1.633590e-05	1	true	DILUPBiCGStab	1.000000e+00	6.712800e-05	1	true
2             	DILUPBiCGStab	1.565860e-02	2.104350e-05	2	6.492110e-02	3.288220e-04	1	false	DILUPBiCGStab	8.318580e-01	6.784420e-03	1	true	GAMG	5.044270e-02	4.349780e-04	2	true	DILUPBiCGStab	1.840240e-02	2.644460e-05	1	true	DILUPBiCGStab	1.903390e-03	1.247520e-05	1	true	DILUPBiCGStab	6.413180e-01	1.696550e-05	1	true
3             	DILUPBiCGStab	1.153280e-03	1.728500e-06	2	6.669100e-03	4.507400e-05	1	false	DILUPBiCGStab	2.465000e-01	5.049890e-04	1	true	GAMG	7.596240e-02	5.524490e-04	3	true	DILUPBiCGStab	7.143350e-03	6.581020e-05	1	true	DILUPBiCGStab	3.593650e-03	1.241320e-05	1	true	DILUPBiCGStab	2.955440e-01	7.561320e-06	1	true
4             	DILUPBiCGStab	5.847720e-04	1.024890e-06	2	1.593160e-03	1.269920e-05	1	false	DILUPBiCGStab	3.256470e-02	1.100470e-04	1	true	GAMG	9.978650e-02	6.523960e-04	2	true	DILUPBiCGStab	1.905630e-03	2.902320e-06	1	true	DILUPBiCGStab	9.241310e-04	2.804220e-07	1	true	DILUPBiCGStab	1.712730e-01	4.465210e-06	1	true
5             	DILUPBiCGStab	1.550570e-03	4.219400e-06	2	3.132290e-03	2.558520e-05	1	false	DILUPBiCGStab	8.280850e-03	2.780030e-05	1	true	GAMG	2.852690e-02	1.706120e-04	2	true	DILUPBiCGStab	4.213440e-04	1.985710e-06	1	true	DILUPBiCGStab	2.062890e-04	2.503800e-07	1	true	DILUPBiCGStab	1.125740e-01	3.094920e-06	1	true
6             	DILUPBiCGStab	1.724740e-03	5.047530e-06	2	4.700680e-03	3.661240e-05	1	false	DILUPBiCGStab	3.038230e-03	9.545530e-06	1	true	GAMG	3.170010e-02	2.976750e-04	2	true	DILUPBiCGStab	2.630320e-04	1.626960e-06	1	true	DILUPBiCGStab	9.204400e-05	1.919010e-07	1	true	DILUPBiCGStab	8.055840e-02	2.352880e-06	1	true
7             	DILUPBiCGStab	7.308580e-04	1.385290e-06	2	2.985260e-03	3.628020e-06	2	false	DILUPBiCGStab	2.195590e-03	6.503440e-06	1	true	GAMG	6.219590e-02	4.907480e-04	2	true	DILUPBiCGStab	2.114940e-04	1.485440e-06	1	true	DILUPBiCGStab	8.759000e-05	1.739930e-07	1	true	DILUPBiCGStab	6.079510e-02	1.887180e-06	1	true
8             	DILUPBiCGStab	4.979150e-04	9.754620e-07	2	1.910000e-03	2.622550e-06	2	false	DILUPBiCGStab	1.855900e-03	5.343060e-06	1	true	GAMG	5.286220e-02	3.252150e-04	2	true	DILUPBiCGStab	2.214740e-04	1.390990e-06	1	true	DILUPBiCGStab	4.970760e-05	1.276600e-07	1	true	DILUPBiCGStab	4.767040e-02	1.572340e-06	1	true
9             	DILUPBiCGStab	3.697340e-04	6.157290e-07	2	1.375620e-03	1.343700e-05	1	false	DILUPBiCGStab	1.227460e-03	4.658570e-06	1	true	GAMG	3.368910e-02	3.306570e-04	2	true	DILUPBiCGStab	2.002630e-04	1.391540e-06	1	true	DILUPBiCGStab	3.824940e-05	1.053000e-07	1	true	DILUPBiCGStab	3.852620e-02	1.350120e-06	1	true
10            	DILUPBiCGStab	2.808380e-04	1.074310e-08	3	9.840900e-04	1.459080e-06	2	false	DILUPBiCGStab	8.965330e-04	4.491490e-06	1	true	GAMG	6.031320e-02	4.600840e-04	2	true	DILUPBiCGStab	1.789010e-04	1.570080e-06	1	true	DILUPBiCGStab	3.014420e-05	9.116250e-08	1	true	DILUPBiCGStab	3.185400e-02	1.185230e-06	1	true
11            	DILUPBiCGStab	2.577810e-04	7.868340e-07	2	9.047330e-04	1.297370e-06	2	false	DILUPBiCGStab	7.108040e-04	3.961600e-06	1	true	GAMG	6.869770e-02	3.887100e-04	2	true	DILUPBiCGStab	1.675650e-04	1.589490e-06	1	true	DILUPBiCGStab	2.571400e-05	8.248250e-08	1	true	DILUPBiCGStab	2.682850e-02	1.058470e-06	1	true
12            	DILUPBiCGStab	2.501690e-04	3.342090e-07	2	8.958570e-04	1.251690e-06	2	false	DILUPBiCGStab	5.868620e-04	3.326030e-06	1	true	GAMG	4.703030e-02	3.452450e-04	2	true	DILUPBiCGStab	1.638520e-04	1.577170e-06	1	true	DILUPBiCGStab	2.353710e-05	7.491010e-08	1	true	DILUPBiCGStab	2.293980e-02	9.581680e-07	1	true
13            	DILUPBiCGStab	2.415990e-04	3.121460e-07	2	8.304930e-04	1.205530e-06	2	false	DILUPBiCGStab	4.959850e-04	2.800120e-06	1	true	GAMG	1.219660e-01	8.479970e-04	2	true	DILUPBiCGStab	1.570100e-04	1.688350e-07	2	true	DILUPBiCGStab	2.040180e-05	6.508970e-08	1	true	DILUPBiCGStab	1.985680e-02	8.768590e-07	1	true
14            	DILUPBiCGStab	2.351070e-04	2.983030e-07	2	7.735380e-04	1.159470e-06	2	false	DILUPBiCGStab	4.234830e-04	2.371570e-06	1	true	GAMG	4.346450e-02	3.093820e-04	2	true	DILUPBiCGStab	1.503710e-04	1.772740e-07	2	true	DILUPBiCGStab	1.750830e-05	5.713990e-08	1	true	DILUPBiCGStab	1.736450e-02	8.094180e-07	1	true
15            	DILUPBiCGStab	2.295970e-04	2.860960e-07	2	7.428980e-04	1.098890e-06	2	false	DILUPBiCGStab	3.619100e-04	2.020740e-06	1	true	GAMG	2.717880e-02	2.436390e-04	2	true	DILUPBiCGStab	1.453800e-04	1.849630e-07	2	true	DILUPBiCGStab	1.524570e-05	5.206130e-08	1	true	DILUPBiCGStab	1.531810e-02	7.526350e-07	1	true
16            	DILUPBiCGStab	2.254440e-04	2.759860e-07	2	7.164480e-04	1.038320e-06	2	false	DILUPBiCGStab	3.129710e-04	1.730430e-06	1	true	GAMG	2.394430e-02	1.469310e-04	3	true	DILUPBiCGStab	1.425260e-04	1.897070e-07	2	true	DILUPBiCGStab	1.338830e-05	4.790110e-08	1	true	DILUPBiCGStab	1.361580e-02	7.043510e-07	1	true
17            	DILUPBiCGStab	2.235870e-04	2.719450e-07	2	6.989830e-04	9.906910e-07	2	false	DILUPBiCGStab	2.760350e-04	1.471970e-06	1	true	GAMG	2.148940e-02	1.641290e-04	3	true	DILUPBiCGStab	1.403580e-04	1.938250e-07	2	true	DILUPBiCGStab	1.194500e-05	4.454650e-08	1	true	DILUPBiCGStab	1.218390e-02	6.629820e-07	1	true
18            	DILUPBiCGStab	2.236710e-04	2.726450e-07	2	6.849390e-04	9.524970e-07	2	false	DILUPBiCGStab	2.483640e-04	1.253270e-06	1	true	GAMG	1.696050e-02	1.665200e-04	3	true	DILUPBiCGStab	1.384370e-04	1.972390e-07	2	true	DILUPBiCGStab	1.072930e-05	4.200470e-08	1	true	DILUPBiCGStab	1.096700e-02	6.272090e-07	1	true
19            	DILUPBiCGStab	2.245930e-04	2.760450e-07	2	6.722160e-04	9.216680e-07	2	false	DILUPBiCGStab	2.273760e-04	1.085130e-06	1	true	GAMG	1.237870e-02	1.187410e-04	4	true	DILUPBiCGStab	1.366550e-04	1.998560e-07	2	true	DILUPBiCGStab	9.751180e-06	3.987330e-08	1	true	DILUPBiCGStab	9.923540e-03	5.960140e-07	1	true
20            	DILUPBiCGStab	2.257040e-04	2.804340e-07	2	6.613950e-04	8.974860e-07	2	false	DILUPBiCGStab	2.114080e-04	9.612490e-07	1	true	GAMG	9.076090e-03	4.859860e-05	5	true	DILUPBiCGStab	1.348660e-04	2.014460e-07	2	true	DILUPBiCGStab	8.999020e-06	3.797670e-08	1	true	DILUPBiCGStab	9.021790e-03	5.686290e-07	1	true
21            	DILUPBiCGStab	2.269470e-04	2.839560e-07	2	6.526890e-04	8.772250e-07	2	false	DILUPBiCGStab	1.990520e-04	8.719150e-07	1	true	GAMG	6.883460e-03	4.342420e-05	5	true	DILUPBiCGStab	1.331210e-04	2.020940e-07	2	true	DILUPBiCGStab	8.451730e-06	3.633850e-08	1	true	DILUPBiCGStab	8.237120e-03	5.444970e-07	1	true
22            	DILUPBiCGStab	2.283360e-04	2.859210e-07	2	6.457200e-04	8.588240e-07	2	false	DILUPBiCGStab	1.891650e-04	8.083570e-07	1	true	GAMG	5.368870e-03	3.988310e-05	5	true	DILUPBiCGStab	1.314490e-04	2.021710e-07	2	true	DILUPBiCGStab	8.073920e-06	3.479090e-08	1	true	DILUPBiCGStab	7.550050e-03	5.231290e-07	1	true
23            	DILUPBiCGStab	2.299930e-04	2.868650e-07	2	6.402920e-04	8.410230e-07	2	false	DILUPBiCGStab	1.806920e-04	7.650190e-07	1	true	GAMG	4.261280e-03	3.721080e-05	5	true	DILUPBiCGStab	1.298250e-04	2.019110e-07	2	true	DILUPBiCGStab	7.776900e-06	3.337070e-08	1	true	DILUPBiCGStab	6.944960e-03	5.040210e-07	1	true
24            	DILUPBiCGStab	2.318500e-04	2.873220e-07	2	6.362580e-04	8.232340e-07	2	false	DILUPBiCGStab	1.728110e-04	7.314720e-07	1	true	GAMG	3.440560e-03	2.028210e-05	6	true	DILUPBiCGStab	1.282490e-04	2.017780e-07	2	true	DILUPBiCGStab	7.505200e-06	3.180140e-08	1	true	DILUPBiCGStab	6.409100e-03	4.868350e-07	1	true
25            	DILUPBiCGStab	2.338210e-04	2.872580e-07	2	6.334700e-04	8.056660e-07	2	false	DILUPBiCGStab	1.656920e-04	7.035630e-07	1	true	GAMG	2.837420e-03	1.901460e-05	6	true	DILUPBiCGStab	1.267310e-04	2.021560e-07	2	true	DILUPBiCGStab	7.255250e-06	3.012020e-08	1	true	DILUPBiCGStab	5.932180e-03	4.712010e-07	1	true
26            	DILUPBiCGStab	2.358680e-04	2.867470e-07	2	6.317630e-04	7.894710e-07	2	false	DILUPBiCGStab	1.591770e-04	6.789390e-07	1	true	GAMG	2.395210e-03	1.797400e-05	6	true	DILUPBiCGStab	1.253110e-04	2.029170e-07	2	true	DILUPBiCGStab	7.020710e-06	2.852070e-08	1	true	DILUPBiCGStab	5.505850e-03	4.568620e-07	1	true
27            	DILUPBiCGStab	2.379930e-04	2.860070e-07	2	6.310770e-04	7.748490e-07	2	false	DILUPBiCGStab	1.534870e-04	6.567530e-07	1	true	GAMG	2.070070e-03	1.697800e-05	6	true	DILUPBiCGStab	1.239970e-04	2.037200e-07	2	true	DILUPBiCGStab	6.796290e-06	2.704950e-08	1	true	DILUPBiCGStab	5.123140e-03	4.437510e-07	1	true
28            	DILUPBiCGStab	2.401740e-04	2.850360e-07	2	6.313310e-04	7.621280e-07	2	false	DILUPBiCGStab	1.484130e-04	6.361000e-07	1	true	GAMG	1.829510e-03	1.629700e-05	6	true	DILUPBiCGStab	1.228290e-04	2.045490e-07	2	true	DILUPBiCGStab	6.582550e-06	2.563580e-08	1	true	DILUPBiCGStab	4.778390e-03	4.317470e-07	1	true
29            	DILUPBiCGStab	2.423810e-04	2.838810e-07	2	6.323520e-04	7.509690e-07	2	false	DILUPBiCGStab	1.435470e-04	6.161080e-07	1	true	GAMG	1.649660e-03	1.596050e-05	6	true	DILUPBiCGStab	1.218450e-04	2.051100e-07	2	true	DILUPBiCGStab	6.375620e-06	2.446250e-08	1	true	DILUPBiCGStab	4.466750e-03	4.206300e-07	1	true
30            	DILUPBiCGStab	2.446340e-04	2.826010e-07	2	6.341760e-04	7.416870e-07	2	false	DILUPBiCGStab	1.388760e-04	5.966060e-07	1	true	GAMG	1.517810e-03	9.527510e-06	7	true	DILUPBiCGStab	1.210120e-04	2.050660e-07	2	true	DILUPBiCGStab	6.187200e-06	2.338120e-08	1	true	DILUPBiCGStab	4.184130e-03	4.102640e-07	1	true
31            	DILUPBiCGStab	2.469290e-04	2.811950e-07	2	6.366890e-04	7.341330e-07	2	false	DILUPBiCGStab	1.344150e-04	5.778260e-07	1	true	GAMG	1.423570e-03	9.574760e-06	7	true	DILUPBiCGStab	1.203370e-04	2.043970e-07	2	true	DILUPBiCGStab	6.005500e-06	2.243160e-08	1	true	DILUPBiCGStab	3.927110e-03	4.005030e-07	1	true
32            	DILUPBiCGStab	2.492370e-04	2.797120e-07	2	6.398070e-04	7.282270e-07	2	false	DILUPBiCGStab	1.301310e-04	5.595990e-07	1	true	GAMG	1.358810e-03	9.660870e-06	7	true	DILUPBiCGStab	1.198230e-04	2.031820e-07	2	true	DILUPBiCGStab	5.833270e-06	2.150780e-08	1	true	DILUPBiCGStab	3.692710e-03	3.912580e-07	1	true
33            	DILUPBiCGStab	2.515230e-04	2.782480e-07	2	6.434420e-04	7.238240e-07	2	false	DILUPBiCGStab	1.259590e-04	5.423450e-07	1	true	GAMG	1.314080e-03	9.719190e-06	7	true	DILUPBiCGStab	1.193980e-04	2.015370e-07	2	true	DILUPBiCGStab	5.673530e-06	2.062520e-08	1	true	DILUPBiCGStab	3.478390e-03	3.824970e-07	1	true
34            	DILUPBiCGStab	2.537680e-04	2.767770e-07	2	6.475450e-04	7.204880e-07	2	false	DILUPBiCGStab	1.219210e-04	5.258440e-07	1	true	GAMG	1.288360e-03	9.722610e-06	7	true	DILUPBiCGStab	1.190670e-04	1.997910e-07	2	true	DILUPBiCGStab	5.521500e-06	1.982710e-08	1	true	DILUPBiCGStab	3.281970e-03	3.741750e-07	1	true
35            	DILUPBiCGStab	2.559670e-04	2.753060e-07	2	6.520630e-04	7.178780e-07	2	false	DILUPBiCGStab	1.181070e-04	5.100800e-07	1	true	GAMG	1.278730e-03	9.659330e-06	7	true	DILUPBiCGStab	1.188020e-04	1.977930e-07	2	true	DILUPBiCGStab	5.375260e-06	1.909110e-08	1	true	DILUPBiCGStab	3.101610e-03	3.662810e-07	1	true
36            	DILUPBiCGStab	2.581070e-04	2.738610e-07	2	6.569390e-04	7.157730e-07	2	false	DILUPBiCGStab	1.146120e-04	4.948690e-07	1	true	GAMG	1.277490e-03	9.528690e-06	7	true	DILUPBiCGStab	1.185810e-04	1.957020e-07	2	true	DILUPBiCGStab	5.239860e-06	1.842380e-08	1	true	DILUPBiCGStab	2.935560e-03	3.587930e-07	1	true
37            	DILUPBiCGStab	2.602040e-04	2.723830e-07	2	6.621500e-04	7.141530e-07	2	false	DILUPBiCGStab	1.113190e-04	4.805420e-07	1	true	GAMG	1.278470e-03	9.276030e-06	7	true	DILUPBiCGStab	1.184120e-04	1.933180e-07	2	true	DILUPBiCGStab	5.110610e-06	1.779000e-08	1	true	DILUPBiCGStab	2.782400e-03	3.516050e-07	1	true
38            	DILUPBiCGStab	2.622380e-04	2.709890e-07	2	6.676680e-04	7.128370e-07	2	false	DILUPBiCGStab	1.081780e-04	4.669070e-07	1	true	GAMG	1.288070e-03	8.965310e-06	7	true	DILUPBiCGStab	1.182980e-04	1.908080e-07	2	true	DILUPBiCGStab	4.985690e-06	1.719510e-08	1	true	DILUPBiCGStab	2.640890e-03	3.446800e-07	1	true
39            	DILUPBiCGStab	2.642050e-04	2.697350e-07	2	6.734510e-04	7.117760e-07	2	false	DILUPBiCGStab	1.051730e-04	4.537130e-07	1	true	GAMG	1.296750e-03	8.690400e-06	7	true	DILUPBiCGStab	1.182060e-04	1.879310e-07	2	true	DILUPBiCGStab	4.869610e-06	1.664240e-08	1	true	DILUPBiCGStab	2.509860e-03	3.379730e-07	1	true
40            	DILUPBiCGStab	2.660990e-04	2.685700e-07	2	6.794970e-04	7.108100e-07	2	false	DILUPBiCGStab	1.023370e-04	4.413950e-07	1	true	GAMG	1.307280e-03	8.444030e-06	7	true	DILUPBiCGStab	1.182570e-04	1.847700e-07	2	true	DILUPBiCGStab	4.756160e-06	1.610360e-08	1	true	DILUPBiCGStab	2.388300e-03	3.314210e-07	1	true
41            	DILUPBiCGStab	2.679890e-04	2.675060e-07	2	6.857810e-04	7.102000e-07	2	false	DILUPBiCGStab	9.965670e-05	4.298310e-07	1	true	GAMG	1.327570e-03	8.246640e-06	7	true	DILUPBiCGStab	1.184640e-04	1.815980e-07	2	true	DILUPBiCGStab	4.650940e-06	1.560620e-08	1	true	DILUPBiCGStab	2.275480e-03	3.250180e-07	1	true
42            	DILUPBiCGStab	2.698090e-04	2.665030e-07	2	6.922690e-04	7.098810e-07	2	false	DILUPBiCGStab	9.710680e-05	4.193530e-07	1	true	GAMG	1.332050e-03	8.073310e-06	7	true	DILUPBiCGStab	1.189300e-04	1.784960e-07	2	true	DILUPBiCGStab	4.550820e-06	1.513130e-08	1	true	DILUPBiCGStab	2.170620e-03	3.187530e-07	1	true
43            	DILUPBiCGStab	2.715070e-04	2.654780e-07	2	6.989680e-04	7.100780e-07	2	false	DILUPBiCGStab	9.469920e-05	4.096550e-07	1	true	GAMG	1.329660e-03	7.929700e-06	7	true	DILUPBiCGStab	1.197130e-04	1.756990e-07	2	true	DILUPBiCGStab	4.451850e-06	1.467880e-08	1	true	DILUPBiCGStab	2.073050e-03	3.126220e-07	1	true
44            	DILUPBiCGStab	2.730730e-04	2.644050e-07	2	7.058530e-04	7.111410e-07	2	false	DILUPBiCGStab	9.243990e-05	4.008860e-07	1	true	GAMG	1.353620e-03	7.837430e-06	7	true	DILUPBiCGStab	1.209280e-04	1.739190e-07	2	true	DILUPBiCGStab	4.360020e-06	1.426180e-08	1	true	DILUPBiCGStab	1.982100e-03	3.066520e-07	1	true
45            	DILUPBiCGStab	2.745230e-04	2.633310e-07	2	7.129280e-04	7.132090e-07	2	false	DILUPBiCGStab	9.032910e-05	3.930050e-07	1	true	GAMG	1.367850e-03	7.827740e-06	7	true	DILUPBiCGStab	1.226070e-04	1.734060e-07	2	true	DILUPBiCGStab	4.262720e-06	1.385050e-08	1	true	DILUPBiCGStab	1.897280e-03	3.008450e-07	1	true
46            	DILUPBiCGStab	2.758100e-04	2.622210e-07	2	7.201380e-04	7.160060e-07	2	false	DILUPBiCGStab	8.838020e-05	3.859120e-07	1	true	GAMG	1.382990e-03	7.889860e-06	7	true	DILUPBiCGStab	1.247320e-04	1.744000e-07	2	true	DILUPBiCGStab	4.173270e-06	1.346960e-08	1	true	DILUPBiCGStab	1.818100e-03	2.951660e-07	1	true
47            	DILUPBiCGStab	2.769260e-04	2.611240e-07	2	7.274580e-04	7.196050e-07	2	false	DILUPBiCGStab	8.655690e-05	3.796030e-07	1	true	GAMG	1.410810e-03	8.012640e-06	7	true	DILUPBiCGStab	1.272340e-04	1.761240e-07	2	true	DILUPBiCGStab	4.080860e-06	1.310000e-08	1	true	DILUPBiCGStab	1.744140e-03	2.896540e-07	1	true
48            	DILUPBiCGStab	2.778470e-04	2.598970e-07	2	7.348590e-04	7.237420e-07	2	false	DILUPBiCGStab	8.481640e-05	3.739170e-07	1	true	GAMG	1.438980e-03	8.187700e-06	7	true	DILUPBiCGStab	1.299860e-04	1.769300e-07	2	true	DILUPBiCGStab	3.989820e-06	1.275090e-08	1	true	DILUPBiCGStab	1.675060e-03	2.843410e-07	1	true
49            	DILUPBiCGStab	2.785900e-04	2.586690e-07	2	7.423420e-04	7.282690e-07	2	false	DILUPBiCGStab	8.316700e-05	3.687170e-07	1	true	GAMG	1.463330e-03	8.400270e-06	7	true	DILUPBiCGStab	1.331780e-04	1.284830e-06	1	true	DILUPBiCGStab	3.898470e-06	1.241050e-08	1	true	DILUPBiCGStab	1.610500e-03	2.791820e-07	1	true
50            	DILUPBiCGStab	2.791410e-04	2.574430e-07	2	7.498710e-04	7.329130e-07	2	false	DILUPBiCGStab	8.158640e-05	3.639200e-07	1	true	GAMG	1.483940e-03	1.467780e-05	6	true	DILUPBiCGStab	1.371330e-04	1.248340e-06	1	true	DILUPBiCGStab	3.807680e-06	1.208310e-08	1	true	DILUPBiCGStab	1.550120e-03	2.742090e-07	1	true
51            	DILUPBiCGStab	2.795110e-04	2.563650e-07	2	7.574390e-04	7.376890e-07	2	false	DILUPBiCGStab	8.010140e-05	3.594890e-07	1	true	GAMG	1.503660e-03	1.418620e-05	6	true	DILUPBiCGStab	1.421160e-04	1.222260e-06	1	true	DILUPBiCGStab	3.718630e-06	1.177400e-08	1	true	DILUPBiCGStab	1.493690e-03	2.693990e-07	1	true
52            	DILUPBiCGStab	2.796920e-04	2.554560e-07	2	7.650090e-04	7.422740e-07	2	false	DILUPBiCGStab	7.869380e-05	3.553290e-07	1	true	GAMG	1.519890e-03	1.370750e-05	6	true	DILUPBiCGStab	1.479030e-04	1.206300e-06	1	true	DILUPBiCGStab	3.630080e-06	1.147050e-08	1	true	DILUPBiCGStab	1.440870e-03	2.647670e-07	1	true
53            	DILUPBiCGStab	2.797410e-04	2.548160e-07	2	7.725740e-04	7.466250e-07	2	false	DILUPBiCGStab	7.734960e-05	3.515620e-07	1	true	GAMG	1.535800e-03	1.325540e-05	6	true	DILUPBiCGStab	1.540290e-04	1.198870e-06	1	true	DILUPBiCGStab	3.541740e-06	1.118410e-08	1	true	DILUPBiCGStab	1.391480e-03	2.603400e-07	1	true
54            	DILUPBiCGStab	2.796570e-04	2.544900e-07	2	7.801010e-04	7.507300e-07	2	false	DILUPBiCGStab	7.609630e-05	3.480550e-07	1	true	GAMG	1.569540e-03	1.284810e-05	6	true	DILUPBiCGStab	1.602540e-04	1.226030e-06	1	true	DILUPBiCGStab	3.456810e-06	1.090670e-08	1	true	DILUPBiCGStab	1.345330e-03	2.561400e-07	1	true
55            	DILUPBiCGStab	2.793520e-04	2.545480e-07	2	7.875750e-04	7.545580e-07	2	false	DILUPBiCGStab	7.491960e-05	3.448160e-07	1	true	GAMG	1.600450e-03	1.250170e-05	6	true	DILUPBiCGStab	1.663510e-04	1.327820e-06	1	true	DILUPBiCGStab	3.374090e-06	1.064480e-08	1	true	DILUPBiCGStab	1.302290e-03	2.520860e-07	1	true
56            	DILUPBiCGStab	2.788190e-04	2.550080e-07	2	7.949600e-04	7.579870e-07	2	false	DILUPBiCGStab	7.382640e-05	3.418280e-07	1	true	GAMG	1.634460e-03	1.220900e-05	6	true	DILUPBiCGStab	1.723380e-04	1.500220e-06	1	true	DILUPBiCGStab	3.292260e-06	1.039150e-08	1	true	DILUPBiCGStab	1.262260e-03	2.482530e-07	1	true
57            	DILUPBiCGStab	2.780600e-04	2.557770e-07	2	8.022320e-04	7.614060e-07	2	false	DILUPBiCGStab	7.282270e-05	3.390690e-07	1	true	GAMG	1.675110e-03	1.196940e-05	6	true	DILUPBiCGStab	1.784140e-04	1.690500e-06	1	true	DILUPBiCGStab	3.214240e-06	1.015160e-08	1	true	DILUPBiCGStab	1.225270e-03	2.446660e-07	1	true
58            	DILUPBiCGStab	2.770870e-04	2.566890e-07	2	8.093730e-04	7.646370e-07	2	false	DILUPBiCGStab	7.191120e-05	3.364840e-07	1	true	GAMG	1.727990e-03	1.177460e-05	6	true	DILUPBiCGStab	1.848030e-04	1.862630e-07	2	true	DILUPBiCGStab	3.138380e-06	9.923450e-09	1	true	DILUPBiCGStab	1.191230e-03	2.413030e-07	1	true
59            	DILUPBiCGStab	2.758870e-04	2.576390e-07	2	8.163740e-04	7.675530e-07	2	false	DILUPBiCGStab	7.109230e-05	3.341020e-07	1	true	GAMG	1.780910e-03	1.162320e-05	6	true	DILUPBiCGStab	1.915340e-04	1.907460e-07	2	true	DILUPBiCGStab	3.066000e-06	9.704130e-09	1	true	DILUPBiCGStab	1.160250e-03	2.381340e-07	1	true
60            	DILUPBiCGStab	2.744830e-04	2.584260e-07	2	8.231970e-04	7.704080e-07	2	false	DILUPBiCGStab	7.034020e-05	3.319070e-07	1	true	GAMG	1.842880e-03	1.150120e-05	6	true	DILUPBiCGStab	1.987500e-04	1.948700e-07	2	true	DILUPBiCGStab	2.995550e-06	9.497320e-09	1	true	DILUPBiCGStab	1.132410e-03	2.351560e-07	1	true
61            	DILUPBiCGStab	2.728740e-04	2.589670e-07	2	8.298250e-04	7.728450e-07	2	false	DILUPBiCGStab	6.964510e-05	3.298970e-07	1	true	GAMG	1.906130e-03	1.140160e-05	6	true	DILUPBiCGStab	2.063140e-04	1.972540e-07	2	true	DILUPBiCGStab	2.929080e-06	9.300420e-09	1	true	DILUPBiCGStab	1.107820e-03	2.322970e-07	1	true
62            	DILUPBiCGStab	2.710840e-04	2.591280e-07	2	8.362370e-04	7.748280e-07	2	false	DILUPBiCGStab	6.900180e-05	3.279060e-07	1	true	GAMG	1.973590e-03	1.131370e-05	6	true	DILUPBiCGStab	2.141730e-04	2.071930e-06	1	true	DILUPBiCGStab	2.865290e-06	9.113330e-09	1	true	DILUPBiCGStab	1.086710e-03	2.295990e-07	1	true
63            	DILUPBiCGStab	2.691180e-04	2.586050e-07	2	8.424100e-04	7.769000e-07	2	false	DILUPBiCGStab	6.840380e-05	3.259820e-07	1	true	GAMG	2.054500e-03	1.124190e-05	6	true	DILUPBiCGStab	2.222500e-04	2.055720e-06	1	true	DILUPBiCGStab	2.805280e-06	8.935750e-09	1	true	DILUPBiCGStab	1.069210e-03	2.270050e-07	1	true
64            	DILUPBiCGStab	2.669850e-04	2.571730e-07	2	8.483110e-04	7.788400e-07	2	false	DILUPBiCGStab	6.786580e-05	3.241610e-07	1	true	GAMG	2.147580e-03	1.119650e-05	6	true	DILUPBiCGStab	2.301740e-04	2.023620e-06	1	true	DILUPBiCGStab	2.747580e-06	8.764020e-09	1	true	DILUPBiCGStab	1.055600e-03	2.244920e-07	1	true
65            	DILUPBiCGStab	2.647240e-04	2.548170e-07	2	8.539290e-04	7.800030e-07	2	false	DILUPBiCGStab	6.737640e-05	3.222860e-07	1	true	GAMG	2.256960e-03	2.198270e-05	5	true	DILUPBiCGStab	2.377900e-04	1.979600e-06	1	true	DILUPBiCGStab	2.691660e-06	8.600220e-09	1	true	DILUPBiCGStab	1.046200e-03	2.220360e-07	1	true
66            	DILUPBiCGStab	2.623300e-04	2.516640e-07	2	8.592510e-04	7.803470e-07	2	false	DILUPBiCGStab	6.692290e-05	3.203460e-07	1	true	GAMG	2.382820e-03	2.203200e-05	5	true	DILUPBiCGStab	2.448630e-04	1.927020e-06	1	true	DILUPBiCGStab	2.639870e-06	8.442490e-09	1	true	DILUPBiCGStab	1.041110e-03	2.196640e-07	1	true
67            	DILUPBiCGStab	2.598120e-04	2.476490e-07	2	8.642460e-04	7.795910e-07	2	false	DILUPBiCGStab	6.648770e-05	3.183140e-07	1	true	GAMG	2.531390e-03	2.208980e-05	5	true	DILUPBiCGStab	2.512470e-04	1.867420e-06	1	true	DILUPBiCGStab	2.588090e-06	8.288390e-09	1	true	DILUPBiCGStab	1.040610e-03	2.174420e-07	1	true
68            	DILUPBiCGStab	2.571770e-04	2.430920e-07	2	8.689220e-04	7.788390e-07	2	false	DILUPBiCGStab	6.605820e-05	3.160680e-07	1	true	GAMG	2.684760e-03	2.221350e-05	5	true	DILUPBiCGStab	2.572100e-04	1.804290e-06	1	true	DILUPBiCGStab	2.539730e-06	8.142560e-09	1	true	DILUPBiCGStab	1.044910e-03	2.153620e-07	1	true
69            	DILUPBiCGStab	2.544280e-04	2.382100e-07	2	8.732180e-04	7.780000e-07	2	false	DILUPBiCGStab	6.563500e-05	3.136140e-07	1	true	GAMG	2.848980e-03	2.234460e-05	5	true	DILUPBiCGStab	2.624920e-04	1.737320e-06	1	true	DILUPBiCGStab	2.493680e-06	8.001600e-09	1	true	DILUPBiCGStab	1.053650e-03	2.134220e-07	1	true
70            	DILUPBiCGStab	2.516450e-04	2.330930e-07	2	8.771670e-04	7.771460e-07	2	false	DILUPBiCGStab	6.520490e-05	3.113610e-07	1	true	GAMG	3.026630e-03	2.254180e-05	5	true	DILUPBiCGStab	2.673050e-04	1.669380e-06	1	true	DILUPBiCGStab	2.447870e-06	7.862540e-09	1	true	DILUPBiCGStab	1.066380e-03	2.116090e-07	1	true
71            	DILUPBiCGStab	2.487990e-04	2.278530e-07	2	8.807370e-04	7.753850e-07	2	false	DILUPBiCGStab	6.477490e-05	3.090370e-07	1	true	GAMG	3.209700e-03	3.060860e-05	4	true	DILUPBiCGStab	2.719720e-04	1.601980e-06	1	true	DILUPBiCGStab	2.404870e-06	7.728050e-09	1	true	DILUPBiCGStab	1.081960e-03	2.098490e-07	1	true
72            	DILUPBiCGStab	2.458970e-04	2.226040e-07	2	8.839100e-04	7.732790e-07	2	false	DILUPBiCGStab	6.434140e-05	3.065160e-07	1	true	GAMG	3.382980e-03	3.086120e-05	4	true	DILUPBiCGStab	2.761520e-04	1.537510e-06	1	true	DILUPBiCGStab	2.362920e-06	7.596420e-09	1	true	DILUPBiCGStab	1.098710e-03	2.081700e-07	1	true
73            	DILUPBiCGStab	2.428990e-04	2.176040e-07	2	8.866890e-04	7.706900e-07	2	false	DILUPBiCGStab	6.389610e-05	3.038470e-07	1	true	GAMG	3.546900e-03	3.122220e-05	4	true	DILUPBiCGStab	2.792890e-04	1.482090e-06	1	true	DILUPBiCGStab	2.321920e-06	7.468470e-09	1	true	DILUPBiCGStab	1.114320e-03	2.066180e-07	1	true
74            	DILUPBiCGStab	2.399240e-04	2.130090e-07	2	8.891050e-04	7.675580e-07	2	false	DILUPBiCGStab	6.344640e-05	3.010700e-07	1	true	GAMG	3.694170e-03	3.178760e-05	4	true	DILUPBiCGStab	2.814540e-04	1.435200e-06	1	true	DILUPBiCGStab	2.282730e-06	7.343440e-09	1	true	DILUPBiCGStab	1.126370e-03	2.053020e-07	1	true
75            	DILUPBiCGStab	2.369360e-04	2.085000e-07	2	8.911120e-04	7.644700e-07	2	false	DILUPBiCGStab	6.297930e-05	2.982130e-07	1	true	GAMG	3.820560e-03	3.255720e-05	4	true	DILUPBiCGStab	2.825800e-04	1.396440e-06	1	true	DILUPBiCGStab	2.244800e-06	7.221290e-09	1	true	DILUPBiCGStab	1.132910e-03	2.041390e-07	1	true
76            	DILUPBiCGStab	2.339550e-04	2.044930e-07	2	8.927680e-04	7.612460e-07	2	false	DILUPBiCGStab	6.249100e-05	2.953210e-07	1	true	GAMG	3.908550e-03	3.353190e-05	4	true	DILUPBiCGStab	2.822740e-04	1.366340e-06	1	true	DILUPBiCGStab	2.207410e-06	7.101490e-09	1	true	DILUPBiCGStab	1.131860e-03	2.030950e-07	1	true
77            	DILUPBiCGStab	2.310530e-04	2.007650e-07	2	8.940540e-04	7.575450e-07	2	false	DILUPBiCGStab	6.197940e-05	2.924590e-07	1	true	GAMG	3.983710e-03	3.465940e-05	4	true	DILUPBiCGStab	2.802890e-04	1.343580e-06	1	true	DILUPBiCGStab	2.171370e-06	6.983120e-09	1	true	DILUPBiCGStab	1.121760e-03	2.021150e-07	1	true
78            	DILUPBiCGStab	2.282800e-04	1.972390e-07	2	8.949340e-04	7.540670e-07	2	false	DILUPBiCGStab	6.145450e-05	2.896230e-07	1	true	GAMG	4.043470e-03	3.590120e-05	4	true	DILUPBiCGStab	2.770490e-04	1.326920e-06	1	true	DILUPBiCGStab	2.136150e-06	6.867070e-09	1	true	DILUPBiCGStab	1.103520e-03	2.012070e-07	1	true
79            	DILUPBiCGStab	2.255780e-04	1.943430e-07	2	8.954600e-04	7.498060e-07	2	false	DILUPBiCGStab	6.091700e-05	2.868470e-07	1	true	GAMG	4.066250e-03	3.722070e-05	4	true	DILUPBiCGStab	2.715090e-04	1.315050e-06	1	true	DILUPBiCGStab	2.102020e-06	6.753410e-09	1	true	DILUPBiCGStab	1.076220e-03	2.003280e-07	1	true
80            	DILUPBiCGStab	2.228440e-04	1.917240e-07	2	8.956570e-04	7.454690e-07	2	false	DILUPBiCGStab	6.036280e-05	2.840940e-07	1	true	GAMG	4.057640e-03	3.858170e-05	4	true	DILUPBiCGStab	2.636670e-04	1.303420e-06	1	true	DILUPBiCGStab	2.068610e-06	6.641760e-09	1	true	DILUPBiCGStab	1.042780e-03	1.994520e-07	1	true
81            	DILUPBiCGStab	2.201900e-04	1.897500e-07	2	8.955780e-04	7.412730e-07	2	false	DILUPBiCGStab	5.979480e-05	2.813950e-07	1	true	GAMG	4.041340e-03	4.002550e-05	4	true	DILUPBiCGStab	2.512080e-04	1.290530e-06	1	true	DILUPBiCGStab	2.035930e-06	6.532100e-09	1	true	DILUPBiCGStab	1.004410e-03	1.985900e-07	1	true
82            	DILUPBiCGStab	2.175820e-04	1.885780e-07	2	8.952530e-04	7.373780e-07	2	false	DILUPBiCGStab	5.921470e-05	2.786900e-07	1	true	GAMG	4.009070e-03	2.703530e-05	5	true	DILUPBiCGStab	2.336590e-04	1.276460e-06	1	true	DILUPBiCGStab	2.004390e-06	6.423440e-09	1	true	DILUPBiCGStab	9.661040e-04	1.977090e-07	1	true
83            	DILUPBiCGStab	2.149170e-04	1.882350e-07	2	8.947590e-04	7.339290e-07	2	false	DILUPBiCGStab	5.863390e-05	2.759930e-07	1	true	GAMG	3.992220e-03	2.736130e-05	5	true	DILUPBiCGStab	2.164480e-04	1.260850e-06	1	true	DILUPBiCGStab	1.973180e-06	6.316010e-09	1	true	DILUPBiCGStab	9.319410e-04	1.967870e-07	1	true
84            	DILUPBiCGStab	2.122090e-04	1.887830e-07	2	8.939890e-04	7.302410e-07	2	false	DILUPBiCGStab	5.805670e-05	2.732890e-07	1	true	GAMG	3.990780e-03	2.775540e-05	5	true	DILUPBiCGStab	2.023210e-04	1.246360e-06	1	true	DILUPBiCGStab	1.942470e-06	6.210200e-09	1	true	DILUPBiCGStab	8.991830e-04	1.958430e-07	1	true
85            	DILUPBiCGStab	2.095160e-04	1.905680e-07	2	8.929590e-04	7.265700e-07	2	false	DILUPBiCGStab	5.748790e-05	2.706330e-07	1	true	GAMG	4.037050e-03	2.824910e-05	5	true	DILUPBiCGStab	1.905800e-04	1.229760e-06	1	true	DILUPBiCGStab	1.912770e-06	6.105890e-09	1	true	DILUPBiCGStab	8.670240e-04	1.948790e-07	1	true
86            	DILUPBiCGStab	2.068500e-04	1.937160e-07	2	8.916940e-04	7.231800e-07	2	false	DILUPBiCGStab	5.692510e-05	2.680020e-07	1	true	GAMG	4.109850e-03	2.885560e-05	5	true	DILUPBiCGStab	1.801550e-04	1.209470e-06	1	true	DILUPBiCGStab	1.884050e-06	6.002770e-09	1	true	DILUPBiCGStab	8.353080e-04	1.938420e-07	1	true
87            	DILUPBiCGStab	2.042410e-04	1.978480e-07	2	8.902510e-04	7.195850e-07	2	false	DILUPBiCGStab	5.637380e-05	2.653280e-07	1	true	GAMG	4.222260e-03	2.948820e-05	5	true	DILUPBiCGStab	1.700280e-04	1.177050e-06	1	true	DILUPBiCGStab	1.855890e-06	5.900580e-09	1	true	DILUPBiCGStab	8.045290e-04	1.927200e-07	1	true
88            	DILUPBiCGStab	2.016700e-04	2.022060e-07	2	8.886250e-04	7.156920e-07	2	false	DILUPBiCGStab	5.583210e-05	2.625820e-07	1	true	GAMG	4.336540e-03	3.016950e-05	5	true	DILUPBiCGStab	1.599690e-04	1.134580e-06	1	true	DILUPBiCGStab	1.828350e-06	5.799800e-09	1	true	DILUPBiCGStab	7.751580e-04	1.915420e-07	1	true
89            	DILUPBiCGStab	1.991170e-04	2.061060e-07	2	8.866210e-04	7.104930e-07	2	false	DILUPBiCGStab	5.530250e-05	2.597840e-07	1	true	GAMG	4.457180e-03	3.090900e-05	5	true	DILUPBiCGStab	1.514290e-04	1.125420e-06	1	true	DILUPBiCGStab	1.801880e-06	5.700560e-09	1	true	DILUPBiCGStab	7.477260e-04	1.902820e-07	1	true
90            	DILUPBiCGStab	1.966550e-04	2.102920e-07	2	8.844790e-04	7.043270e-07	2	false	DILUPBiCGStab	5.479580e-05	2.570090e-07	1	true	GAMG	4.561340e-03	3.172400e-05	5	true	DILUPBiCGStab	1.450090e-04	1.119560e-06	1	true	DILUPBiCGStab	1.776060e-06	5.602160e-09	1	true	DILUPBiCGStab	7.214550e-04	1.889410e-07	1	true
91            	DILUPBiCGStab	1.943210e-04	2.143890e-07	2	8.819850e-04	6.981430e-07	2	false	DILUPBiCGStab	5.432050e-05	2.543230e-07	1	true	GAMG	4.623530e-03	3.259350e-05	5	true	DILUPBiCGStab	1.395060e-04	1.102730e-06	1	true	DILUPBiCGStab	1.750710e-06	5.504820e-09	1	true	DILUPBiCGStab	6.963550e-04	1.874960e-07	1	true
92            	DILUPBiCGStab	1.920650e-04	2.183020e-07	2	8.793260e-04	6.919710e-07	2	false	DILUPBiCGStab	5.387320e-05	2.515370e-07	1	true	GAMG	4.665250e-03	3.354560e-05	5	true	DILUPBiCGStab	1.345990e-04	1.076140e-06	1	true	DILUPBiCGStab	1.725840e-06	5.408430e-09	1	true	DILUPBiCGStab	6.728290e-04	1.859490e-07	1	true