/*--------------------------------*- C++ -*----------------------------------*\
| =========                 |                                                 |
| \\      /  F ield         | OpenFOAM: The Open Source CFD Toolbox           |
|  \\    /   O peration     | Version:  v2012                                 |
|   \\  /    A nd           | Website:  www.openfoam.com                      |
|    \\/     M anipulation  |                                                 |
\*---------------------------------------------------------------------------*/
FoamFile
{
    version     2.0;
    format      ascii;
    class       volScalarField;
    location    "853";
    object      cp;
}
// * * * * * * * * * * * * * * * * * * * * * * * * * * * * * * * * * * * * * //

dimensions      [0 0 0 0 0 0 0];


internalField   nonuniform List<scalar> 
103390
(
740.519
740.516
1003.09
1075.24
1178.42
1239.81
1295.43
1337.15
1371.13
1398.22
1419.96
1437.1
1450.35
1460.09
1467.22
1472.15
1474.39
1474.5
1472.58
1468.8
1463.29
1456.24
1446.66
1437.78
1427.03
1414.8
1400.98
1385.69
1369.44
1350.99
1332.17
1313.96
1293.35
1271.48
1248.2
1222.98
1196.18
1172.33
1145.05
1115.92
1086.26
1050.14
1024.28
988.353
957.525
913.892
881.972
842.601
807.424
757.362
721.112
676.963
635.501
578.504
538.749
492.189
430.875
383.934
337.178
265.161
219.454
161.147
88.07
41.8706
-36.6619
-101.414
-159.542
-255.436
-291.76
-414.689
-438.748
-575.71
-601.156
-744.838
-773.541
-924.465
-959.611
-1109.93
-1164.88
-1296.52
-1386.57
-1492.45
-1617.23
-1712.05
-1844.68
-1965.48
-2070.88
-2226.8
-2343.51
-2468.89
-2631.87
-2763.5
-2893.84
-3078.57
-3215.99
-3360.77
-3552.23
-3709.83
-3866.87
-4060.42
-4243.02
-4413.03
-4598.72
-4818.7
-4993.75
-5168.56
-5430.91
-5602.36
-5771.11
-6071.34
-6227.91
-6413.3
-6722.91
-6864.28
-7097.5
-7398.42
-7445.99
-7925.54
-7950.26
-8249
-8538.99
-8567.64
-9152.65
-8916.42
-9775.27
-9295.38
-10349
-9746.62
-10837.4
-10308.7
-11201
-11014.8
-11422
-11852.6
-11583.5
-12706.1
-12098.4
-12891.1
-13116.4
-12628.5
-14103.2
-13447.9
-13381.3
-14695.6
-14213.7
-13647.2
-15956.3
-14630.9
-14392.8
-16086.3
-15490.2
-15857.6
-14484.1
-18475.5
-15146.8
-16182.4
-14837.6
-18269.7
-16439.2
-15019.1
-15647.6
-14155.9
-19270.7
-14604.5
-14056.1
-12680.3
-13531
-12274.6
-16755.4
-12808.3
-10545.5
-9329.99
-8829.41
-8521.61
-8327.49
-8608.01
-8268.96
-12123.8
-6686.36
-5153.75
-3886.36
-3330.64
-2829.61
-2500.51
-2227.64
-2020.63
-1854.31
-1726.88
-1629.62
-1558.12
-1509.98
-1486.14
-1486.38
-1511.37
-1566.75
-1626.45
-1627.07
-2029.09
-2943.57
-404.789
457.122
1247.37
1777.27
2222.41
2589.18
2906.94
3185.97
3435.81
3662.21
3869.66
4061.34
4239.66
4406.42
4562.86
4710.36
4849.94
4972.17
5076.88
5144.9
4670.09
7508.33
7664.78
8284.03
8401.11
8690.18
8822.32
9001.36
9151.02
9337.86
10275.4
10239.1
10441.3
10396.4
10494.8
10441.9
10470.3
10317.8
10278.6
10045.1
9941.57
9348.32
9434.18
8946.99
8914.28
7973.46
8229.73
7650.53
7350.65
6786.6
6786.62
6393.14
5595.7
5843.73
5326.77
4726.26
4812.18
4422.98
3782.39
4015.78
3431.89
3141
3157.23
2505.06
2678.89
2180.22
2042.54
1907.61
1522.24
1631.75
1093.29
1310.91
757.669
973.045
497.657
642.577
296.265
336.166
138.849
73.7107
34.0399
-182.402
-102.645
-281.159
-288.693
-319.351
-439.967
-401.103
-447.437
-531.347
-474.595
-511.507
-562.812
-509.127
-525.061
-549.328
-508.708
-500.177
-503.073
-480.818
-445.641
-438.392
-429.304
-372.598
-362.645
-357.452
-290.512
-279.294
-266.471
-204.341
-188.464
-173.887
-109.801
-97.6202
-67.094
-16.0991
-6.31101
49.2848
74.5442
99.6687
159.048
153.697
240.013
220.245
313.529
292.58
384.861
364.005
457.243
436.962
525.795
519.594
582.325
606.207
636.241
689.945
701.707
752.638
783.982
801.836
857.167
878.756
903.002
949.218
975.003
994.135
1038.42
1062.25
1090.65
1110.03
1149.87
1169.41
1195.97
1213.36
1248.74
1266.12
1292.03
1304.24
1332.68
1352.28
1372.17
1389.79
1403.45
1422.34
1439.88
1455.1
1469.11
1482.08
1491.53
1503.22
1515.52
1524.84
1533.29
1540.29
1545.78
1549.81
1551.81
1555.95
1556.81
1556.07
1553.53
1549
1542.27
1533.27
1521.19
1507.01
1490.22
1469.51
1444.57
1414.66
1379.05
1335.87
1285.27
1219.17
1152.72
1037.52
966.213
666.647
737.358
-1274.6
-342.679
-349.767
-210.799
-122.23
-37.6402
29.5028
84.3902
127.747
161.244
185.837
202.223
210.691
211.205
203.382
186.333
158.556
117.326
59.5169
-22.7154
-120.039
-263.25
-295.19
-1045.55
667.731
752.828
1002.75
1074.93
1177.71
1239.11
1294.86
1336.66
1370.73
1397.9
1419.7
1436.9
1450.2
1459.98
1467.14
1472.07
1474.33
1474.46
1472.55
1468.78
1463.28
1456.24
1446.67
1437.79
1427.03
1414.81
1400.99
1385.7
1369.46
1351.01
1332.19
1313.98
1293.36
1271.49
1248.21
1223
1196.2
1172.35
1145.07
1115.94
1086.27
1050.16
1024.29
988.365
957.537
913.908
881.986
842.612
807.434
757.377
721.123
676.972
635.51
578.518
538.757
492.196
430.888
383.942
337.184
265.173
219.461
161.155
88.0802
41.8768
-36.653
-101.407
-159.536
-255.427
-291.755
-414.68
-438.743
-575.701
-601.151
-744.83
-773.536
-924.457
-959.606
-1109.92
-1164.87
-1296.52
-1386.57
-1492.45
-1617.22
-1712.05
-1844.68
-1965.47
-2070.88
-2226.79
-2343.5
-2468.89
-2631.86
-2763.49
-2893.83
-3078.56
-3215.99
-3360.76
-3552.22
-3709.83
-3866.86
-4060.41
-4243.01
-4413.02
-4598.71
-4818.69
-4993.74
-5168.54
-5430.89
-5602.34
-5771.1
-6071.32
-6227.9
-6413.29
-6722.88
-6864.26
-7097.48
-7398.39
-7445.98
-7925.5
-7950.24
-8248.97
-8538.95
-8567.62
-9152.59
-8916.41
-9775.2
-9295.37
-10348.9
-9746.6
-10837.3
-10308.7
-11200.9
-11014.8
-11421.9
-11852.5
-11583.5
-12705.8
-12098.4
-12890.9
-13116.2
-12628.6
-14102.6
-13447.9
-13381.3
-14694.6
-14213.8
-13647.3
-15954.4
-14630.9
-14393
-16084.8
-15488.8
-15857.7
-14484.5
-18469.9
-15146.6
-16182.5
-14838
-18262.4
-16435.7
-15019.2
-15648.1
-14157.6
-19248.8
-14601.3
-14056.4
-12680.9
-13531.4
-12276.8
-16717.1
-12793.2
-10545.9
-9331.73
-8830.38
-8522.27
-8327.4
-8607.15
-8273.33
-12007.1
-6678.43
-5152.98
-3889.1
-3332.87
-2831.63
-2502.27
-2229.22
-2022.08
-1855.62
-1728.05
-1630.61
-1559.06
-1510.61
-1486.29
-1485.38
-1508.06
-1559.34
-1609.84
-1614.65
-1977.67
-2510.96
-396.143
483.662
1253.18
1780.05
2222.86
2588.69
2905.99
3184.8
3434.57
3660.97
3868.46
4060.2
4238.62
4405.49
4562.07
4709.73
4849.54
4972.36
5077.76
5147.81
4709.31
7497.48
7662.89
8282.28
8399.81
8689.18
8821.57
9000.94
9152.05
9339.48
10273.2
10238.3
10440.8
10396
10494.5
10441.6
10470
10317.6
10278.4
10044.9
9941.28
9348.68
9434.08
8946.9
8913.98
7973.98
8229.68
7650.45
7350.71
6786.79
6786.56
6393.01
5596.04
5843.68
5326.7
4726.49
4812.17
4422.94
3782.57
4015.77
3431.92
3141.1
3157.2
2505.15
2678.9
2180.26
2042.59
1907.63
1522.29
1631.76
1093.34
1310.91
757.711
973.055
497.692
642.591
296.292
336.183
138.871
73.7276
34.0522
-182.378
-102.635
-281.14
-288.681
-319.339
-439.949
-401.096
-447.426
-531.331
-474.59
-511.497
-562.799
-509.122
-525.053
-549.318
-508.702
-500.171
-503.066
-480.812
-445.637
-438.386
-429.298
-372.595
-362.64
-357.446
-290.51
-279.29
-266.465
-204.339
-188.46
-173.881
-109.799
-97.6159
-67.0901
-16.0964
-6.30594
49.2869
74.5485
99.6722
159.051
153.702
240.016
220.251
313.531
292.586
384.863
364.012
457.245
436.969
525.796
519.601
582.328
606.212
636.247
689.947
701.716
752.641
783.986
801.847
857.168
878.762
903.015
949.221
975.009
994.15
1038.43
1062.26
1090.66
1110.04
1149.88
1169.42
1195.98
1213.38
1248.75
1266.12
1292.04
1304.26
1332.69
1352.29
1372.18
1389.81
1403.47
1422.36
1439.89
1455.11
1469.12
1482.09
1491.56
1503.25
1515.54
1524.86
1533.3
1540.3
1545.78
1549.81
1551.82
1555.93
1556.78
1556.03
1553.48
1548.93
1542.19
1533.17
1521.07
1506.86
1490.02
1469.26
1444.27
1414.3
1378.63
1335.38
1284.72
1218.52
1152.25
1037.79
966.875
680.528
664.721
-1040.52
-351.673
-348.775
-212.954
-124.218
-39.2177
28.2283
83.3505
126.864
160.463
185.122
201.525
209.974
210.428
202.488
185.246
157.171
115.51
57.083
-26.066
-123.88
-264.922
-302.213
-839.594
657.027
764.836
1002.32
1075.71
1177.24
1238.46
1294.18
1336.03
1370.22
1397.49
1419.37
1436.64
1450
1459.84
1467.03
1471.99
1474.27
1474.41
1472.52
1468.76
1463.27
1456.25
1446.71
1437.81
1427.05
1414.83
1401.01
1385.73
1369.48
1351.05
1332.23
1314.01
1293.39
1271.52
1248.24
1223.03
1196.24
1172.37
1145.09
1115.96
1086.3
1050.2
1024.31
988.384
957.556
913.939
882.011
842.629
807.45
757.404
721.145
676.986
635.525
578.544
538.771
492.207
430.913
383.956
337.194
265.196
219.473
161.165
88.0992
41.8862
-36.6376
-101.394
-159.526
-255.412
-291.747
-414.663
-438.735
-575.686
-601.143
-744.816
-773.528
-924.443
-959.598
-1109.91
-1164.86
-1296.5
-1386.55
-1492.44
-1617.21
-1712.04
-1844.67
-1965.46
-2070.87
-2226.78
-2343.49
-2468.88
-2631.85
-2763.48
-2893.82
-3078.54
-3215.97
-3360.75
-3552.2
-3709.81
-3866.84
-4060.39
-4242.98
-4413
-4598.69
-4818.66
-4993.72
-5168.53
-5430.85
-5602.32
-5771.08
-6071.27
-6227.86
-6413.26
-6722.82
-6864.22
-7097.44
-7398.32
-7445.95
-7925.4
-7950.18
-8248.91
-8538.85
-8567.58
-9152.46
-8916.37
-9775.03
-9295.32
-10348.7
-9746.55
-10837.1
-10308.6
-11200.6
-11014.6
-11421.7
-11852.1
-11583.5
-12705.2
-12098.3
-12890.5
-13115.7
-12628.7
-14101.2
-13447.7
-13381.5
-14692.2
-14213.7
-13647.7
-15950.3
-14630.6
-14393.5
-16081.1
-15485.2
-15858.2
-14485.5
-18457.4
-15144.8
-16183.4
-14838.7
-18245.4
-16426.5
-15019.4
-15649.7
-14160.2
-19201.2
-14589.8
-14059
-12682.3
-13532.8
-12278.4
-16634.6
-12754.9
-10549.5
-9337.38
-8833.31
-8523.91
-8326.48
-8603.35
-8271.2
-11789.1
-6637.74
-5163.65
-3898.39
-3340.92
-2837.66
-2507.54
-2233.57
-2025.82
-1858.55
-1730.13
-1631.71
-1559.07
-1508.35
-1480.55
-1473.3
-1485.69
-1521.11
-1546.62
-1549.76
-1821.67
-1984.33
-325.484
496.855
1244.55
1767.11
2210.39
2577.25
2896.09
3176.3
3427.32
3654.79
3863.2
4055.73
4234.85
4402.37
4559.57
4707.83
4848.49
4973.37
5079.93
5162.57
4777.5
7484.52
7654.54
8278.08
8396.13
8686.73
8819.58
8999.54
9154.28
9341.53
10268.9
10235.8
10439.3
10394.7
10493.3
10440.3
10468.9
10316.8
10277.8
10044.2
9940.68
9349.12
9433.81
8946.58
8913.62
7974.89
8229.61
7650.28
7350.98
6787.21
6786.46
6392.86
5596.81
5843.62
5326.61
4727.03
4812.17
4422.9
3783.01
4015.74
3432.02
3141.35
3157.18
2505.36
2678.95
2180.35
2042.72
1907.66
1522.41
1631.77
1093.46
1310.93
757.814
973.084
497.777
642.628
296.359
336.227
138.923
73.7697
34.0828
-182.318
-102.611
-281.094
-288.652
-319.311
-439.905
-401.078
-447.399
-531.294
-474.576
-511.473
-562.769
-509.109
-525.034
-549.294
-508.689
-500.156
-503.048
-480.797
-445.626
-438.372
-429.282
-372.588
-362.628
-357.43
-290.504
-279.279
-266.451
-204.334
-188.45
-173.868
-109.794
-97.6053
-67.0807
-16.0898
-6.29381
49.2921
74.5587
99.6805
159.059
153.714
240.021
220.264
313.536
292.599
384.869
364.027
457.25
436.988
525.799
519.619
582.335
606.225
636.263
689.954
701.739
752.649
783.998
801.876
857.173
878.775
903.045
949.226
975.022
994.183
1038.44
1062.27
1090.69
1110.07
1149.89
1169.44
1196.01
1213.42
1248.76
1266.14
1292.07
1304.31
1332.72
1352.31
1372.2
1389.83
1403.52
1422.4
1439.92
1455.14
1469.14
1482.11
1491.61
1503.29
1515.56
1524.88
1533.32
1540.31
1545.79
1549.84
1551.87
1555.94
1556.77
1556.01
1553.44
1548.88
1542.1
1533.05
1520.95
1506.7
1489.79
1468.95
1443.87
1413.79
1378.01
1334.62
1283.93
1217.56
1151.42
1037.65
966.875
689.929
662.225
-791.419
-351.468
-352.316
-217.483
-127.91
-41.725
26.3417
81.9736
125.813
159.62
184.403
200.846
209.25
209.572
201.39
183.756
155.066
112.464
52.765
-32.2392
-131.794
-272.036
-304.728
-619.654
684.223
782.229
1003.23
1079.56
1177.41
1238.17
1293.34
1335.13
1369.5
1396.88
1418.88
1436.25
1449.71
1459.65
1466.9
1471.87
1474.19
1474.37
1472.5
1468.77
1463.29
1456.29
1446.79
1437.87
1427.1
1414.88
1401.07
1385.78
1369.54
1351.13
1332.31
1314.06
1293.44
1271.57
1248.29
1223.1
1196.31
1172.42
1145.13
1116
1086.34
1050.27
1024.35
988.417
957.588
913.994
882.056
842.657
807.476
757.452
721.182
677.01
635.55
578.591
538.796
492.223
430.957
383.98
337.208
265.237
219.494
161.183
88.1329
41.9013
-36.6109
-101.372
-159.509
-255.384
-291.735
-414.634
-438.723
-575.66
-601.13
-744.792
-773.515
-924.418
-959.585
-1109.88
-1164.85
-1296.49
-1386.54
-1492.43
-1617.19
-1712.02
-1844.65
-1965.44
-2070.86
-2226.75
-2343.47
-2468.86
-2631.82
-2763.46
-2893.8
-3078.51
-3215.95
-3360.73
-3552.17
-3709.78
-3866.82
-4060.36
-4242.95
-4412.97
-4598.66
-4818.61
-4993.68
-5168.49
-5430.79
-5602.27
-5771.05
-6071.19
-6227.8
-6413.22
-6722.73
-6864.16
-7097.37
-7398.21
-7445.9
-7925.25
-7950.09
-8248.81
-8538.7
-8567.5
-9152.24
-8916.3
-9774.74
-9295.24
-10348.4
-9746.45
-10836.7
-10308.5
-11200.3
-11014.3
-11421.5
-11851.6
-11583.4
-12704.2
-12098.1
-12889.8
-13114.9
-12629
-14098.9
-13447.3
-13381.7
-14688.5
-14213.4
-13648.2
-15943.5
-14630.1
-14394.3
-16075
-15479.5
-15858.8
-14486.7
-18437.9
-15141.7
-16184.8
-14839.3
-18219.1
-16411.9
-15020
-15651.7
-14162.9
-19132
-14571.1
-14063.6
-12684
-13532.9
-12279
-16517.8
-12698.7
-10556.2
-9345.99
-8837.53
-8525.3
-8323.45
-8590.66
-8262.03
-11511.3
-6579.62
-5182.43
-3913.78
-3355.01
-2848.23
-2516.68
-2240.84
-2031.6
-1862.26
-1731.46
-1631.04
-1554.73
-1498.54
-1462.96
-1444.12
-1441.09
-1455.12
-1453.4
-1443.45
-1588.88
-1548.78
-236.807
514.021
1220.66
1736.84
2179.97
2549.37
2871.63
3155.15
3409.2
3639.32
3850.03
4044.58
4225.48
4394.64
4553.44
4703.33
4845.98
4975.55
5083.82
5193.79
4855.71
7462.54
7634.81
8267.59
8387.08
8680.56
8814.48
8995.4
9157.02
9342.32
10259.1
10229.5
10435.2
10391.2
10490.2
10436.9
10466
10314.7
10276
10042.4
9939.19
9349.41
9433.07
8945.71
8912.96
7976.24
8229.43
7649.89
7351.5
6787.94
6786.27
6392.67
5598.14
5843.52
5326.5
4727.99
4812.18
4422.86
3783.75
4015.71
3432.19
3141.76
3157.15
2505.74
2679.03
2180.51
2042.95
1907.73
1522.62
1631.81
1093.66
1310.98
757.994
973.137
497.928
642.693
296.479
336.304
139.016
73.843
34.1375
-182.214
-102.567
-281.013
-288.6
-319.263
-439.828
-401.044
-447.354
-531.228
-474.55
-511.433
-562.715
-509.085
-525.001
-549.251
-508.664
-500.129
-503.016
-480.77
-445.607
-438.346
-429.254
-372.576
-362.607
-357.401
-290.495
-279.26
-266.425
-204.325
-188.432
-173.844
-109.786
-97.5862
-67.0633
-16.0775
-6.27155
49.3018
74.5773
99.6959
159.073
153.737
240.031
220.289
313.546
292.625
384.879
364.054
457.258
437.023
525.807
519.652
582.349
606.251
636.293
689.968
701.782
752.665
784.02
801.931
857.183
878.802
903.103
949.236
975.047
994.245
1038.46
1062.29
1090.73
1110.14
1149.91
1169.46
1196.07
1213.49
1248.79
1266.17
1292.11
1304.41
1332.77
1352.35
1372.24
1389.88
1403.62
1422.47
1439.97
1455.19
1469.19
1482.16
1491.69
1503.36
1515.58
1524.89
1533.32
1540.32
1545.81
1549.9
1551.98
1555.97
1556.78
1555.99
1553.39
1548.8
1541.98
1532.89
1520.78
1506.46
1489.41
1468.45
1443.24
1413.02
1377.12
1333.6
1283.01
1217.01
1150.78
1039.64
967.39
703.414
697.521
-605.526
-328.978
-341.866
-218.256
-129.44
-42.7121
25.7193
81.8699
126.109
160.19
185.106
201.58
209.906
210.017
201.444
183.168
153.511
109.646
48.7239
-36.7211
-133.701
-260.714
-286.752
-452.572
724.297
810.109
1012.02
1089.37
1180.76
1239.82
1293.36
1334.62
1368.86
1396.23
1418.29
1435.76
1449.32
1459.37
1466.7
1471.7
1474.07
1474.3
1472.48
1468.78
1463.33
1456.35
1446.91
1437.96
1427.17
1414.96
1401.15
1385.87
1369.64
1351.25
1332.44
1314.15
1293.52
1271.66
1248.37
1223.2
1196.43
1172.49
1145.2
1116.07
1086.42
1050.38
1024.42
988.469
957.641
914.079
882.124
842.703
807.517
757.527
721.24
677.046
635.589
578.663
538.833
492.249
431.023
384.016
337.23
265.298
219.524
161.21
88.1829
41.924
-36.5713
-101.339
-159.483
-255.343
-291.717
-414.591
-438.705
-575.622
-601.11
-744.756
-773.496
-924.383
-959.566
-1109.85
-1164.83
-1296.46
-1386.51
-1492.41
-1617.16
-1712
-1844.62
-1965.41
-2070.84
-2226.72
-2343.44
-2468.84
-2631.78
-2763.43
-2893.78
-3078.47
-3215.91
-3360.7
-3552.12
-3709.74
-3866.79
-4060.31
-4242.9
-4412.93
-4598.61
-4818.54
-4993.62
-5168.45
-5430.7
-5602.2
-5771
-6071.08
-6227.72
-6413.16
-6722.6
-6864.07
-7097.27
-7398.07
-7445.83
-7925.04
-7949.96
-8248.68
-8538.49
-8567.39
-9151.95
-8916.2
-9774.37
-9295.13
-10348
-9746.31
-10836.2
-10308.2
-11199.8
-11013.9
-11421.1
-11850.9
-11583.3
-12703
-12097.9
-12888.9
-13113.7
-12629.2
-14095.9
-13446.8
-13381.8
-14683.7
-14212.9
-13648.9
-15934.8
-14629.3
-14395.2
-16067.1
-15472.3
-15859.2
-14488
-18413.8
-15137.5
-16186
-14839.7
-18186.6
-16393.9
-15020.3
-15652.6
-14166
-19049.3
-14547.5
-14068.3
-12685.2
-13529.4
-12279.7
-16381.3
-12632.1
-10563.4
-9355
-8841.54
-8524.68
-8317.53
-8568.97
-8244.11
-11215
-6517.25
-5203.53
-3932.78
-3373.33
-2862.31
-2528.7
-2250.15
-2038.41
-1865.86
-1730.94
-1627.72
-1545.33
-1481.55
-1436.1
-1404.56
-1386.09
-1377.57
-1348.91
-1310.08
-1340.68
-1185.84
-143.023
536.283
1190.08
1695.56
2135.22
2506.96
2833.28
3121.34
3379.78
3613.9
3828.19
4025.92
4209.7
4381.53
4542.97
4695.59
4841.34
4977.66
5088.78
5232.68
4928.97
7427.07
7604.23
8249.03
8371.24
8669.24
8805.08
8987.58
9157.93
9339.44
10241.9
10217.9
10427.4
10384.2
10484.1
10430.1
10460.2
10310.3
10272.3
10038.6
9936.1
9349.1
9431.52
8943.9
8911.62
7977.79
8229.03
7649.16
7352.13
6788.88
6785.95
6392.42
5599.91
5843.38
5326.36
4729.28
4812.2
4422.85
3784.73
4015.66
3432.42
3142.3
3157.13
2506.26
2679.14
2180.74
2043.26
1907.82
1522.9
1631.87
1093.93
1311.04
758.235
973.211
498.13
642.781
296.641
336.407
139.143
73.9411
34.212
-182.074
-102.507
-280.904
-288.528
-319.198
-439.725
-400.997
-447.292
-531.14
-474.512
-511.379
-562.643
-509.05
-524.955
-549.193
-508.63
-500.093
-502.971
-480.734
-445.58
-438.312
-429.215
-372.558
-362.578
-357.362
-290.481
-279.234
-266.389
-204.313
-188.407
-173.811
-109.773
-97.5596
-67.039
-16.0602
-6.24034
49.3159
74.6034
99.7178
159.093
153.768
240.046
220.324
313.56
292.66
384.894
364.094
457.271
437.072
525.819
519.699
582.371
606.287
636.338
689.988
701.843
752.688
784.052
802.009
857.199
878.84
903.184
949.253
975.082
994.334
1038.5
1062.32
1090.8
1110.23
1149.94
1169.5
1196.14
1213.59
1248.84
1266.21
1292.17
1304.54
1332.84
1352.42
1372.3
1389.95
1403.76
1422.59
1440.04
1455.27
1469.26
1482.22
1491.8
1503.45
1515.63
1524.91
1533.33
1540.33
1545.83
1549.97
1552.11
1555.99
1556.76
1555.94
1553.3
1548.66
1541.79
1532.64
1520.52
1506.13
1488.95
1467.88
1442.59
1412.34
1376.51
1333.27
1283.33
1219.13
1153.67
1048.48
974.185
729.161
740.171
-439.477
-259.834
-281.603
-190.306
-112.928
-30.5476
35.719
90.7671
134.445
168.208
192.932
209.282
217.542
217.617
209.034
190.804
161.412
118.611
60.8299
-15.9515
-95.4579
-195.539
-214.619
-292.55
774.211
850.43
1032.96
1107.19
1189.88
1245.47
1295.97
1335.79
1369.21
1396.18
1418.07
1435.49
1449.07
1459.18
1466.55
1471.56
1473.98
1474.26
1472.47
1468.8
1463.39
1456.44
1447.07
1438.08
1427.27
1415.07
1401.27
1385.99
1369.76
1351.41
1332.6
1314.26
1293.63
1271.77
1248.48
1223.33
1196.57
1172.59
1145.29
1116.15
1086.51
1050.51
1024.5
988.537
957.709
914.188
882.211
842.76
807.57
757.621
721.312
677.093
635.639
578.752
538.879
492.281
431.105
384.061
337.257
265.374
219.561
161.243
88.2448
41.952
-36.5222
-101.299
-159.453
-255.293
-291.695
-414.538
-438.683
-575.575
-601.086
-744.713
-773.473
-924.34
-959.543
-1109.81
-1164.8
-1296.43
-1386.47
-1492.38
-1617.12
-1711.97
-1844.58
-1965.37
-2070.81
-2226.67
-2343.41
-2468.82
-2631.73
-2763.39
-2893.76
-3078.41
-3215.87
-3360.67
-3552.07
-3709.69
-3866.75
-4060.26
-4242.84
-4412.88
-4598.56
-4818.46
-4993.56
-5168.4
-5430.6
-5602.12
-5770.95
-6070.95
-6227.63
-6413.09
-6722.44
-6863.96
-7097.15
-7397.89
-7445.75
-7924.79
-7949.81
-8248.52
-8538.24
-8567.26
-9151.62
-8916.07
-9773.94
-9295
-10347.4
-9746.15
-10835.6
-10308
-11199.2
-11013.5
-11420.7
-11850.2
-11583.2
-12701.5
-12097.6
-12887.8
-13112.4
-12629.5
-14092.3
-13446.2
-13382
-14678.1
-14212.3
-13649.6
-15924.7
-14628.3
-14396.1
-16057.9
-15464.2
-15859.2
-14489.4
-18386.3
-15132.6
-16186.6
-14840.1
-18149.5
-16372.9
-15020
-15651.9
-14169.7
-18956.7
-14520.3
-14072
-12685.3
-13521.8
-12280.7
-16231.3
-12558.6
-10570.1
-9363.37
-8844.79
-8521.18
-8309.14
-8540.43
-8211.65
-10917.5
-6454.68
-5225.08
-3954.82
-3395.34
-2879.68
-2543.42
-2261.37
-2046.22
-1869.7
-1729.37
-1621.94
-1532.57
-1460.26
-1404.08
-1359.18
-1323.69
-1290.58
-1234.57
-1159.58
-1105.41
-880.524
-46.5224
565.436
1162.19
1651.09
2082.32
2454.18
2783.66
3076.47
3340.02
3579.11
3798.01
3999.96
4187.61
4363.07
4528.07
4684.37
4834
4977.62
5094.27
5271.3
4995.9
7382.15
7566.23
8223.36
8349.56
8653.17
8791.7
8976.32
9155.87
9332.63
10218.8
10201.9
10416
10374.1
10475
10420.3
10451.7
10303.7
10266.7
10032.8
9931.25
9347.88
9429.04
8941.05
8909.4
7979.25
8228.33
7648.02
7352.72
6789.92
6785.51
6392.1
5601.98
5843.2
5326.23
4730.8
4812.23
4422.86
3785.89
4015.62
3432.73
3142.94
3157.12
2506.88
2679.29
2181.03
2043.62
1907.95
1523.24
1631.95
1094.26
1311.12
758.526
973.301
498.374
642.889
296.837
336.532
139.295
74.0589
34.3027
-181.906
-102.435
-280.773
-288.442
-319.12
-439.602
-400.939
-447.219
-531.034
-474.466
-511.314
-562.556
-509.009
-524.901
-549.124
-508.589
-500.05
-502.918
-480.69
-445.548
-438.27
-429.168
-372.535
-362.542
-357.315
-290.463
-279.202
-266.346
-204.297
-188.377
-173.771
-109.757
-97.5276
-67.0095
-16.0392
-6.20258
49.333
74.635
99.7443
159.117
153.806
240.064
220.366
313.577
292.703
384.912
364.142
457.286
437.132
525.832
519.756
582.397
606.33
636.39
690.012
701.917
752.717
784.089
802.102
857.218
878.886
903.283
949.273
975.125
994.441
1038.54
1062.36
1090.87
1110.34
1149.98
1169.55
1196.24
1213.72
1248.89
1266.27
1292.25
1304.7
1332.93
1352.49
1372.37
1390.03
1403.93
1422.72
1440.14
1455.36
1469.35
1482.3
1491.95
1503.56
1515.69
1524.96
1533.36
1540.35
1545.86
1550.05
1552.25
1556.03
1556.76
1555.9
1553.22
1548.53
1541.62
1532.42
1520.33
1505.9
1488.65
1467.59
1442.39
1412.37
1377.02
1334.76
1286.37
1225.55
1162.6
1065.79
991.451
767.195
785.172
-255.494
-130.404
-156.21
-105.253
-56.5503
10.5282
68.608
118.586
159.147
190.965
214.545
230.345
238.581
239.185
231.785
215.703
190.101
154.195
109.352
58.1814
15.8823
-53.6922
-65.6552
-96.829
838.339
902.397
1066.19
1132.75
1205.44
1255.89
1301.99
1339.29
1371.08
1397.14
1418.52
1435.66
1449.11
1459.19
1466.54
1471.52
1473.97
1474.27
1472.51
1468.87
1463.48
1456.56
1447.26
1438.23
1427.39
1415.2
1401.41
1386.14
1369.91
1351.6
1332.79
1314.4
1293.76
1271.9
1248.61
1223.49
1196.74
1172.7
1145.39
1116.26
1086.63
1050.67
1024.59
988.617
957.788
914.313
882.31
842.827
807.632
757.73
721.395
677.147
635.697
578.856
538.932
492.319
431.2
384.112
337.289
265.462
219.604
161.28
88.3162
41.9837
-36.4659
-101.253
-159.418
-255.236
-291.671
-414.477
-438.658
-575.521
-601.059
-744.663
-773.447
-924.29
-959.517
-1109.76
-1164.77
-1296.39
-1386.44
-1492.35
-1617.07
-1711.95
-1844.54
-1965.33
-2070.79
-2226.62
-2343.37
-2468.79
-2631.68
-2763.35
-2893.72
-3078.35
-3215.82
-3360.63
-3552
-3709.63
-3866.7
-4060.2
-4242.77
-4412.82
-4598.5
-4818.37
-4993.49
-5168.34
-5430.48
-5602.03
-5770.88
-6070.81
-6227.52
-6413.01
-6722.26
-6863.84
-7097.02
-7397.69
-7445.65
-7924.51
-7949.64
-8248.33
-8537.97
-8567.11
-9151.23
-8915.92
-9773.45
-9294.84
-10346.8
-9745.96
-10835
-10307.7
-11198.6
-11013
-11420.3
-11849.3
-11583
-12699.8
-12097.2
-12886.6
-13110.9
-12629.8
-14088.3
-13445.4
-13382.1
-14671.7
-14211.5
-13650.4
-15913.4
-14627
-14397
-16047.4
-15455.1
-15858.7
-14491
-18355.5
-15126.9
-16186.2
-14840.6
-18108
-16349.2
-15018.8
-15649.3
-14174
-18855
-14489.7
-14074.5
-12683.6
-13510.8
-12280.5
-16070.4
-12479.5
-10575.8
-9370.82
-8847.33
-8514.73
-8298.86
-8506.14
-8163.4
-10623.5
-6391.83
-5246.02
-3979.72
-3420.84
-2900.44
-2560.96
-2274.77
-2055.53
-1874.5
-1728.22
-1614.86
-1518.32
-1437.11
-1369.63
-1310.65
-1256.78
-1199.2
-1117.11
-1007.19
-888.824
-625.374
49.378
600.443
1142.15
1609.48
2027.53
2395.99
2726.36
3022.91
3291.43
3535.9
3760.09
3967.05
4159.4
4339.31
4508.67
4669.41
4823.53
4974.26
5099.12
5306.99
5058.27
7331.67
7523
8191.56
8322.98
8632.88
8774.8
8961.91
9150.76
9322.53
10191.7
10182.5
10401.8
10361.5
10463.6
10408
10441
10295.3
10259.5
10025.3
9924.96
9345.79
9425.7
8937.29
8906.34
7980.47
8227.31
7646.47
7353.18
6790.97
6784.96
6391.71
5604.28
5843
5326.09
4732.51
4812.3
4422.91
3787.21
4015.6
3433.1
3143.68
3157.13
2507.6
2679.46
2181.37
2044.03
1908.1
1523.63
1632.04
1094.64
1311.21
758.862
973.408
498.658
643.014
297.063
336.676
139.472
74.1952
34.4085
-181.712
-102.351
-280.622
-288.343
-319.031
-439.46
-400.871
-447.135
-530.912
-474.413
-511.24
-562.457
-508.961
-524.839
-549.044
-508.542
-500.001
-502.857
-480.639
-445.511
-438.223
-429.115
-372.51
-362.502
-357.261
-290.443
-279.166
-266.296
-204.279
-188.343
-173.725
-109.739
-97.4909
-66.9757
-16.0151
-6.15922
49.3525
74.6711
99.7747
159.144
153.85
240.084
220.415
313.597
292.753
384.933
364.196
457.304
437.199
525.847
519.82
582.426
606.379
636.45
690.039
702
752.748
784.131
802.208
857.238
878.937
903.396
949.298
975.173
994.563
1038.59
1062.41
1090.96
1110.46
1150.03
1169.61
1196.34
1213.86
1248.96
1266.34
1292.33
1304.88
1333.03
1352.58
1372.45
1390.13
1404.11
1422.88
1440.24
1455.47
1469.45
1482.4
1492.11
1503.72
1515.78
1525.02
1533.41
1540.39
1545.91
1550.14
1552.42
1556.08
1556.78
1555.9
1553.19
1548.47
1541.53
1532.32
1520.31
1505.92
1488.71
1467.82
1442.97
1413.56
1379.26
1338.82
1293.05
1236.96
1178.52
1091.21
1022.53
816.337
836.738
-45.2824
60.7836
32.1417
45.9341
52.515
90.9358
132.223
171.65
205.465
232.973
253.976
268.547
276.743
278.546
273.854
262.59
245.077
222.668
200.429
187.548
194.312
161.481
156.949
134.017
917.49
965.1
1109.06
1165.03
1227.33
1271.31
1311.94
1345.64
1374.95
1399.47
1419.9
1436.47
1449.59
1459.5
1466.75
1471.64
1474.07
1474.36
1472.62
1469
1463.62
1456.72
1447.48
1438.41
1427.55
1415.36
1401.58
1386.31
1370.08
1351.82
1333.01
1314.55
1293.91
1272.04
1248.75
1223.66
1196.93
1172.83
1145.51
1116.37
1086.75
1050.84
1024.69
988.708
957.877
914.455
882.421
842.903
807.701
757.852
721.487
677.208
635.761
578.971
538.991
492.361
431.307
384.169
337.324
265.561
219.652
161.322
88.3962
42.0189
-36.4028
-101.202
-159.379
-255.171
-291.644
-414.408
-438.631
-575.461
-601.03
-744.607
-773.418
-924.234
-959.488
-1109.71
-1164.73
-1296.35
-1386.39
-1492.32
-1617.02
-1711.91
-1844.5
-1965.29
-2070.76
-2226.57
-2343.33
-2468.76
-2631.62
-2763.3
-2893.69
-3078.28
-3215.76
-3360.59
-3551.93
-3709.57
-3866.65
-4060.13
-4242.69
-4412.75
-4598.43
-4818.27
-4993.4
-5168.27
-5430.35
-5601.93
-5770.81
-6070.64
-6227.4
-6412.93
-6722.06
-6863.71
-7096.87
-7397.47
-7445.55
-7924.2
-7949.45
-8248.12
-8537.65
-8566.94
-9150.8
-8915.75
-9772.89
-9294.67
-10346.2
-9745.75
-10834.2
-10307.4
-11197.9
-11012.4
-11419.7
-11848.3
-11582.8
-12697.9
-12096.9
-12885.2
-13109.2
-12630.1
-14083.8
-13444.5
-13382.2
-14664.5
-14210.6
-13651.1
-15900.7
-14625.5
-14398
-16035.7
-15445.2
-15857.5
-14492.7
-18321.4
-15120.5
-16184.8
-14841
-18062.4
-16322.8
-15016.5
-15644.6
-14178.7
-18745.1
-14455.9
-14075.3
-12680.4
-13496.2
-12277.7
-15901.4
-12395.7
-10580.1
-9377.21
-8849.23
-8505.7
-8286.76
-8466.27
-8102.62
-10333.1
-6328.68
-5265.13
-4007.07
-3449.42
-2924.62
-2581.48
-2290.76
-2066.96
-1881.05
-1728.95
-1607.96
-1504.03
-1413.8
-1334.75
-1261.3
-1188.74
-1107.83
-1001.17
-860.724
-694.859
-413.881
141.45
638.254
1130.27
1573.18
1974.86
2336.44
2664.81
2963.19
3235.68
3485.27
3714.97
3927.44
4125.13
4310.17
4484.57
4650.4
4809.55
4967.68
5101.41
5339.39
5116.95
7276.97
7475.4
8153.9
8291.75
8608.41
8754.44
8944.32
9142.61
9309.47
10161
10160.2
10384.9
10346.5
10450.1
10393.6
10428.4
10285.4
10250.9
10016.6
9917.47
9342.92
9421.58
8932.74
8902.52
7981.43
8225.94
7644.52
7353.47
6792
6784.26
6391.2
5606.78
5842.77
5325.95
4734.39
4812.39
4422.98
3788.68
4015.6
3433.55
3144.51
3157.14
2508.42
2679.66
2181.76
2044.5
1908.28
1524.07
1632.16
1095.07
1311.32
759.245
973.532
498.979
643.157
297.321
336.839
139.673
74.3499
34.5293
-181.493
-102.255
-280.45
-288.23
-318.929
-439.301
-400.795
-447.039
-530.776
-474.353
-511.157
-562.345
-508.906
-524.77
-548.954
-508.488
-499.945
-502.788
-480.583
-445.469
-438.169
-429.054
-372.481
-362.457
-357.2
-290.421
-279.125
-266.24
-204.258
-188.304
-173.673
-109.719
-97.4496
-66.9378
-15.9881
-6.1105
49.3743
74.7117
99.8087
159.175
153.899
240.106
220.47
313.619
292.808
384.955
364.258
457.323
437.275
525.862
519.892
582.457
606.433
636.517
690.067
702.093
752.782
784.177
802.326
857.26
878.993
903.522
949.325
975.227
994.699
1038.64
1062.46
1091.06
1110.6
1150.09
1169.67
1196.46
1214.02
1249.03
1266.41
1292.42
1305.09
1333.15
1352.68
1372.55
1390.24
1404.32
1423.05
1440.36
1455.59
1469.56
1482.51
1492.3
1503.91
1515.88
1525.12
1533.49
1540.46
1545.99
1550.27
1552.63
1556.17
1556.85
1555.95
1553.22
1548.5
1541.57
1532.41
1520.53
1506.29
1489.28
1468.81
1444.63
1416.34
1383.77
1346.06
1304.01
1253.68
1201.38
1124
1065.42
876.619
898.951
186.705
304.747
274.758
256.925
214.646
214.609
230.66
253.717
276.769
297.281
313.997
326.437
334.419
337.957
337.303
333.136
327.075
322.518
327.227
353.577
409.78
426.16
418.165
380.136
1007.99
1036.85
1158.21
1202.86
1254.83
1291.54
1325.99
1355.23
1381.24
1403.54
1422.49
1438.12
1450.65
1460.23
1467.25
1471.98
1474.32
1474.58
1472.81
1469.19
1463.82
1456.92
1447.75
1438.63
1427.74
1415.55
1401.77
1386.5
1370.28
1352.06
1333.25
1314.72
1294.07
1272.21
1248.91
1223.86
1197.15
1172.97
1145.64
1116.5
1086.89
1051.04
1024.81
988.81
957.976
914.611
882.543
842.987
807.778
757.987
721.589
677.275
635.832
579.099
539.056
492.407
431.424
384.231
337.362
265.669
219.704
161.369
88.4845
42.0573
-36.3332
-101.145
-159.336
-255.1
-291.615
-414.332
-438.601
-575.394
-600.997
-744.545
-773.387
-924.172
-959.457
-1109.65
-1164.7
-1296.3
-1386.35
-1492.29
-1616.96
-1711.88
-1844.45
-1965.24
-2070.73
-2226.51
-2343.29
-2468.72
-2631.55
-2763.25
-2893.65
-3078.21
-3215.71
-3360.55
-3551.85
-3709.5
-3866.59
-4060.05
-4242.6
-4412.68
-4598.36
-4818.16
-4993.31
-5168.2
-5430.2
-5601.81
-5770.73
-6070.45
-6227.26
-6412.83
-6721.84
-6863.56
-7096.71
-7397.22
-7445.43
-7923.85
-7949.23
-8247.89
-8537.31
-8566.75
-9150.33
-8915.56
-9772.28
-9294.47
-10345.5
-9745.52
-10833.4
-10307
-11197.1
-11011.8