/*--------------------------------*- C++ -*----------------------------------*\
| =========                 |                                                 |
| \\      /  F ield         | OpenFOAM: The Open Source CFD Toolbox           |
|  \\    /   O peration     | Version:  v2012                                 |
|   \\  /    A nd           | Website:  www.openfoam.com                      |
|    \\/     M anipulation  |                                                 |
\*---------------------------------------------------------------------------*/
FoamFile
{
    version     2.0;
    format      ascii;
    class       volScalarField;
    location    "853";
    object      gammaInt;
}
// * * * * * * * * * * * * * * * * * * * * * * * * * * * * * * * * * * * * * //

dimensions      [0 0 0 0 0 0 0];


internalField   nonuniform List<scalar> 
103390
(
9.96293
9.95303
9.93978
9.9389
9.94081
9.9425
9.94691
9.95182
9.95165
9.95106
9.95045
9.94983
9.94924
9.94867
9.9481
9.94753
9.94702
9.94655
9.94613
9.94575
9.94541
9.94512
9.94493
9.94467
9.94438
9.94418
9.94402
9.94391
9.94384
9.94384
9.94386
9.94378
9.94372
9.94374
9.94377
9.94387
9.94402
9.94407
9.94407
9.94417
9.94426
9.94453
9.94463
9.94466
9.94476
9.94498
9.94519
9.94525
9.94531
9.94554
9.94576
9.94581
9.94588
9.94613
9.94631
9.94625
9.9465
9.94669
9.94662
9.94685
9.94702
9.94696
9.9472
9.94726
9.94729
9.94748
9.94743
9.94762
9.94758
9.94771
9.94773
9.94777
9.94782
9.94784
9.94788
9.94788
9.94793
9.94789
9.94797
9.94789
9.94797
9.94789
9.94793
9.9479
9.94785
9.94789
9.9478
9.94779
9.94781
9.9477
9.94769
9.9477
9.94758
9.94747
9.94302
9.93926
9.93417
9.93017
9.92788
9.92811
9.92842
9.92867
9.92887
9.9292
9.9295
9.92961
9.9299
9.93018
9.93016
9.93042
9.9307
9.9307
9.93109
9.93146
9.9316
9.93212
9.93213
9.93241
9.93267
9.93243
9.93271
9.93231
9.93252
9.93207
9.93227
9.93187
9.93196
9.93169
9.93158
9.93155
9.93111
9.93143
9.93056
9.9312
9.92996
9.93059
9.93039
9.9293
9.93058
9.92818
9.9292
9.92994
9.92654
9.92801
9.92744
9.92115
9.88932
9.89108
9.88394
9.88643
9.88752
9.88591
9.87721
9.88562
9.88495
9.87813
9.8725
9.87992
9.8827
9.87395
9.87183
9.8613
9.88382
9.8808
9.87081
9.86671
9.86613
9.85885
9.89053
9.88609
9.87106
9.86865
9.86939
9.86925
9.8677
9.86935
9.87413
9.91686
9.882
9.86407
9.86893
9.87269
9.8748
9.87592
9.87646
9.87663
9.87665
9.87672
9.87705
9.87795
9.88016
9.88428
9.89096
9.90007
9.90992
9.91635
9.91414
9.90055
9.8639
9.78757
9.79928
9.81268
9.82416
9.83473
9.84293
9.84973
9.85527
9.85976
9.86332
9.86608
9.86817
9.86979
9.87126
9.87332
9.87808
9.89037
9.9045
9.9086
9.91317
9.91607
9.86044
9.84567
9.84942
9.83506
9.82789
9.81201
9.80062
9.78683
9.77337
9.64113
9.46043
9.32131
8.95486
8.36741
6.51967
7.01546
8.5915
9.24077
9.51216
9.72715
9.81251
9.84897
9.88259
9.91641
9.93552
9.93451
9.94559
9.95212
9.95397
9.95208
9.95818
9.95738
9.95467
9.95845
9.95709
9.95519
9.95743
9.95471
9.95215
9.941
9.93745
9.93781
9.93758
9.93665
9.93742
9.93645
9.93678
9.93625
9.93629
9.93608
9.93588
9.93586
9.93558
9.93566
9.93539
9.9355
9.93525
9.93534
9.93511
9.93524
9.93508
9.93492
9.93494
9.93467
9.93467
9.93451
9.93428
9.93425
9.93399
9.93371
9.93361
9.93331
9.93303
9.93288
9.93261
9.93231
9.9321
9.93186
9.93159
9.93139
9.93122
9.93099
9.9308
9.93075
9.93059
9.93048
9.93051
9.93041
9.93034
9.93039
9.93031
9.93026
9.93031
9.93023
9.93024
9.93022
9.93016
9.9302
9.93009
9.93013
9.93002
9.93001
9.92993
9.92989
9.92982
9.92978
9.92969
9.92965
9.93049
9.93207
9.93314
9.93485
9.93594
9.93754
9.93905
9.94042
9.94243
9.9437
9.94523
9.94742
9.94858
9.94871
9.94865
9.9488
9.94874
9.94863
9.94868
9.94872
9.94864
9.94855
9.9486
9.94865
9.94857
9.94848
9.9485
9.94856
9.94858
9.94844
9.94845
9.94845
9.94853
9.94857
9.94851
9.94848
9.94851
9.94853
9.94862
9.94716
9.9438
9.94043
9.93729
9.93412
9.931
9.92917
9.92893
9.92908
9.92926
9.92959
9.92997
9.9304
9.93086
9.93135
9.93189
9.93248
9.93304
9.93356
9.93411
9.93466
9.93519
9.93568
9.93604
9.93641
9.93627
9.93661
9.93635
9.93705
9.95013
9.95872
9.91899
9.78945
9.4638
9.34544
9.13435
8.98298
8.82194
8.66893
8.51393
8.36078
8.21517
8.07533
7.91608
7.72027
7.47678
7.23372
7.59547
8.03654
8.46021
8.8199
9.22372
9.53628
9.85048
9.94562
9.81643
9.76452
9.69945
9.71732
9.73442
9.75502
9.78231
9.81152
9.817
9.82023
9.82273
9.82468
9.82622
9.82743
9.82826
9.82882
9.82933
9.82973
9.83003
9.83026
9.83044
9.83061
9.83081
9.83068
9.83048
9.83039
9.83033
9.83028
9.83025
9.8303
9.83024
9.82995
9.82972
9.82958
9.82943
9.82938
9.82934
9.82902
9.82867
9.82846
9.82822
9.82825
9.82788
9.82744
9.82709
9.82696
9.82671
9.82621
9.82571
9.82549
9.82517
9.82459
9.82402
9.82372
9.82327
9.82249
9.82209
9.82162
9.82077
9.82026
9.81971
9.81884
9.81827
9.81751
9.81667
9.81602
9.8151
9.81432
9.81339
9.81247
9.81152
9.81052
9.80953
9.80848
9.80741
9.80632
9.80519
9.80405
9.80286
9.80171
9.80041
9.79924
9.79781
9.79654
9.79515
9.79375
9.79244
9.79082
9.78939
9.78801
9.78625
9.78472
9.78326
9.781
9.76116
9.74455
9.72128
9.7025
9.69108
9.68972
9.68841
9.68732
9.6862
9.68477
9.68366
9.68257
9.68075
9.67934
9.67812
9.67598
9.67459
9.67361
9.67192
9.67126
9.67066
9.66929
9.66847
9.66651
9.66478
9.66325
9.6604
9.65839
9.65514
9.6527
9.64972
9.64719
9.64447
9.64177
9.63934
9.63656
9.63431
9.63156
9.62916
9.6265
9.62312
9.62062
9.61752
9.61415
9.61134
9.60575
9.60243
9.59811
9.59034
9.58532
9.57125
9.55484
9.34526
9.33923
9.32416
9.31864
9.3096
9.29794
9.27801
9.28622
9.26619
9.24457
9.23032
9.24654
9.2299
9.20142
9.18901
9.17058
9.24071
9.19395
9.16175
9.15104
9.14947
9.14482
9.26694
9.1984
9.13881
9.14122
9.15501
9.15834
9.15718
9.16851
9.23041
9.40114
9.15057
9.08803
9.12499
9.15652
9.17396
9.18511
9.19093
9.19379
9.1948
9.19535
9.19759
9.20335
9.21637
9.24027
9.27881
9.33108
9.38538
9.41574
9.38968
9.26201
8.99521
8.60813
8.69156
8.75424
8.83207
8.902
8.96238
9.01531
9.06132
9.10123
9.13566
9.16528
9.19088
9.21346
9.23467
9.25822
9.29495
9.37462
9.46201
9.48578
9.5078
9.46705
9.1794
9.24657
9.29195
9.30109
9.30757
9.29969
9.29164
9.26674
9.18883
8.94
8.80669
8.67297
8.31949
7.75206
6.18554
6.57158
8.03158
8.73846
9.07914
9.37306
9.54647
9.62554
9.68689
9.74819
9.79752
9.80138
9.81944
9.83302
9.8361
9.83118
9.8391
9.83414
9.82719
9.8304
9.8233
9.81765
9.81796
9.80583
9.7962
9.74
9.7266
9.72398
9.71924
9.71602
9.71323
9.70962
9.70744
9.70417
9.70243
9.69947
9.69802
9.69559
9.69448
9.69267
9.69184
9.69058
9.68993
9.68916
9.68881
9.68833
9.68777
9.68768
9.68711
9.68708
9.68678
9.68645
9.68665
9.68625
9.68589
9.68594
9.6854
9.68502
9.68506
9.68466
9.68429
9.68424
9.68389
9.68353
9.68354
9.68349
9.68327
9.6833
9.6836
9.68364
9.68396
9.68467
9.68505
9.6856
9.68646
9.68694
9.68758
9.6884
9.68897
9.68971
9.69038
9.691
9.69178
9.69232
9.69304
9.69355
9.69419
9.69474
9.69536
9.6959
9.69653
9.69708
9.69767
9.69825
9.70285
9.71052
9.71543
9.72381
9.72864
9.7364
9.74322
9.74949
9.75891
9.76436
9.77188
9.7819
9.78621
9.78731
9.78791
9.78867
9.78913
9.78948
9.79007
9.79065
9.791
9.79127
9.79178
9.7923
9.79258
9.79274
9.7931
9.79353
9.79391
9.79388
9.79407
9.79424
9.79451
9.79477
9.79471
9.79462
9.79461
9.79454
9.79458
9.78925
9.77498
9.76146
9.74856
9.73534
9.72217
9.7138
9.71158
9.71085
9.71002
9.70939
9.70877
9.70807
9.70725
9.70628
9.70515
9.70396
9.70239
9.70027
9.69775
9.69474
9.69109
9.68665
9.68104
9.67435
9.6653
9.65557
9.64818
9.63818
9.70588
9.77286
9.82749
9.35969
8.82791
8.47302
8.19131
8.02452
7.88788
7.77363
7.66894
7.57588
7.50556
7.45965
7.40638
7.33508
7.24482
7.17044
7.35632
7.58263
7.81211
8.05902
8.45792
9.11271
9.60767
9.88136
9.28888
9.03869
8.85248
8.8914
8.93956
9.01418
9.12062
9.26184
9.28854
9.30677
9.32217
9.3354
9.34684
9.35671
9.365
9.37212
9.37861
9.38436
9.38942
9.3939
9.3979
9.40155
9.40486
9.40698
9.40878
9.41065
9.41234
9.41385
9.41518
9.41648
9.41723
9.4173
9.41746
9.41768
9.41775
9.41789
9.41781
9.41693
9.41604
9.41531
9.4145
9.41402
9.41252
9.41094
9.4095
9.40841
9.40687
9.4048
9.40279
9.4012
9.39927
9.39684
9.39443
9.39241
9.39001
9.38714
9.38468
9.38211
9.37902
9.37616
9.37331
9.3701
9.36694
9.36369
9.36023
9.35688
9.35342
9.34958
9.34599
9.34183
9.33795
9.3338
9.32965
9.32542
9.321
9.31663
9.312
9.30758
9.30263
9.29837
9.29299
9.28866
9.28298
9.27809
9.27289
9.26733
9.26257
9.25643
9.25092
9.24601
9.23939
9.23364
9.22848
9.22024
9.1482
9.08778
9.00233
8.93296
8.89078
8.88613
8.88156
8.878
8.87463
8.86997
8.86646
8.86356
8.85783
8.85335
8.85024
8.84372
8.83957
8.83766
8.83316
8.83217
8.83211
8.82885
8.82816
8.82335
8.8189
8.81582
8.80766
8.80306
8.79367
8.7879
8.7795
8.77359
8.76636
8.75998
8.75419
8.7474
8.74283
8.7358
8.73159
8.7245
8.71822
8.71199
8.7046
8.69829
8.69005
8.67903
8.67155
8.65944
8.64421
8.63317
8.57904
8.55523
7.84042
7.82617
7.80359
7.79806
7.78051
7.75874
7.73208
7.74518
7.70613
7.66587
7.64587
7.67183
7.63908
7.58515
7.56163
7.53446
7.65419
7.5713
7.49938
7.47749
7.47003
7.4622
7.67879
7.55598
7.43739
7.42401
7.4363
7.4365
7.43351
7.4522
7.54381
7.91783
7.44751
7.29699
7.32892
7.3598
7.37934
7.3871
7.3873
7.38172
7.373
7.36757
7.36443
7.36724
7.38201
7.41521
7.47399
7.55952
7.65519
7.71158
7.65913
7.44902
7.1238
6.65139
6.65445
6.6888
6.75785
6.83991
6.92696
7.01496
7.09952
7.17823
7.24966
7.31356
7.3706
7.42245
7.47242
7.52863
7.61847
7.8719
8.17171
8.21313
8.23047
8.11127
7.63686
7.80281
7.88528
7.93353
7.96347
7.97788
7.97992
7.93655
7.77681
7.50869
7.48916
7.40031
7.13695
6.69163
5.63197
5.88103
7.00553
7.68245
8.07543
8.45021
8.78017
8.95275
9.0714
9.18891
9.31707
9.34064
9.37355
9.40596
9.41344
9.40231
9.41262
9.39704
9.38006
9.37999
9.35793
9.3429
9.33707
9.2978
9.26405
9.0512
9.0086
8.99811
8.98246
8.97405
8.96266
8.95333
8.94539
8.93606
8.93032
8.92122
8.91702
8.9093
8.90651
8.90068
8.89885
8.89475
8.89339
8.8909
8.89037
8.88868
8.88722
8.88702
8.88494
8.88495
8.88358
8.88244
8.88291
8.88098
8.87958
8.87929
8.87675
8.87512
8.87475
8.87269
8.871
8.87031
8.86841
8.8667
8.8663
8.86561
8.86434
8.86418
8.86484
8.86451
8.86553
8.86779
8.86879
8.87071
8.87357
8.87495
8.87722
8.88
8.88176
8.88441
8.88658
8.88868
8.89142
8.89306
8.89566
8.89717
8.89952
8.90121
8.90338
8.90515
8.90731
8.90909
8.91117
8.91307
8.93056
8.95897
8.9767
9.00791
9.0252
9.05404
9.07881
9.10167
9.13653
9.15582
9.18688
9.22228
9.23477
9.23844
9.24068
9.24276
9.24441
9.24571
9.24736
9.24901
9.25019
9.25106
9.25233
9.25368
9.2545
9.25483
9.25553
9.25634
9.25715
9.25678
9.25671
9.25658
9.25659
9.25661
9.25568
9.25449
9.25336
9.25195
9.25064
9.23252
9.17172
9.12059
9.07011
9.01753
8.96454
8.93011
8.91929
8.9134
8.90736
8.90142
8.89525
8.88859
8.88131
8.87329
8.86451
8.85514
8.84446
8.83205
8.81807
8.80234
8.78454
8.76433
8.74101
8.71488
8.68427
8.65295
8.63748
8.63153
8.81811
9.14821
9.66553
9.35241
8.11262
7.52454
7.21115
7.04635
6.92521
6.82902
6.74548
6.67687
6.64569
6.66405
6.68422
6.70009
6.71592
6.75305
6.87842
7.03471
7.22573
7.48984
7.99717
9.01553
9.71597
9.73828
8.46916
7.89572
7.49249
7.4688
7.50996
7.59733
7.77994
8.21379
8.26554
8.30095
8.33225
8.36026
8.38539
8.40785
8.42769
8.44543
8.46181
8.47671
8.49023
8.50255
8.51383
8.52425
8.53377
8.54128
8.54807
8.55473
8.56089
8.56658
8.5718
8.57673
8.58058
8.58324
8.5859
8.58849
8.59075
8.59304
8.59472
8.595
8.59526
8.59568
8.5959
8.5964
8.5952
8.59386
8.59273
8.592
8.59043
8.58799
8.5857
8.58394
8.58153
8.57833
8.57518
8.57254
8.56917
8.56521
8.56176
8.55802
8.5536
8.54941
8.54518
8.54048
8.53573
8.53085
8.52566
8.52051
8.51529
8.50931
8.50378
8.49727
8.4912
8.48466
8.47813
8.47146
8.46451
8.4576
8.4503
8.44335
8.43556
8.42887
8.42045
8.41362
8.40474
8.39705
8.38894
8.3803
8.37293
8.36352
8.35505
8.34755
8.33754
8.32881
8.32096
8.30787
8.15353
8.02383
7.84041
7.69225
7.60408
7.60132
7.59898
7.59814
7.59794
7.59643
7.59619
7.59664
7.59363
7.59159
7.59119
7.58716
7.58606
7.58848
7.58939
7.59524
7.60269
7.60628
7.61216
7.61255
7.61216
7.61256
7.60638
7.60355
7.595
7.59076
7.58357
7.57977
7.57442
7.57068
7.56758
7.56395
7.56285
7.55931
7.55908
7.55577
7.55361
7.55133
7.54748
7.54475
7.54021
7.53186
7.52942
7.52016
7.50702
7.50412
7.47067
7.41268
6.99251
6.96874
6.94504
6.95017
6.93496
6.91421
6.90195
6.92729
6.8852
6.85269
6.85197
6.88106
6.84242
6.79233
6.78518
6.78368
6.86541
6.76514
6.70582
6.70081
6.70565
6.7198
6.83747
6.68975
6.59769
6.60047
6.61397
6.62055
6.62861
6.65638
6.71599
6.84793
6.47526
6.41084
6.44075
6.46411
6.4783
6.48451
6.48579
6.48391
6.48248
6.4826
6.48458
6.49049
6.50208
6.51913
6.53873
6.55131
6.53941
6.48141
6.36491
6.19754
6.03871
5.86444
5.87185
5.89642
5.94644
6.00301
6.06223
6.12083
6.17682
6.2292
6.27762
6.32234
6.36427
6.40515
6.44831
6.50081
6.57911
6.71666
6.84893
6.8641
6.85094
6.76256
6.50422
6.60387
6.65794
6.69161
6.71972
6.7383
6.74694
6.71663
6.59676
6.43241
6.44948
6.40345
6.23397
5.92583
5.24323
5.41682
6.18778
6.70138
7.02865
7.35118
7.7078
7.92653
8.07521
8.2254
8.42519
8.47968
8.53136
8.59187
8.61557
8.60439
8.62442
8.60736
8.58401
8.58588
8.55521
8.53319
8.52532
8.45891
8.37849
7.916
7.83791
7.82334
7.80373
7.79324
7.77957
7.76881
7.75971
7.7488
7.74212
7.73126
7.72637
7.71733
7.71442
7.70803
7.70648
7.70228
7.70118
7.69884
7.69846
7.69677
7.6949
7.69389
7.69045
7.68888
7.68568
7.68267
7.68091
7.67607
7.67134
7.66719
7.66034
7.65446
7.64988
7.64335
7.63715
7.63184
7.62501
7.61877
7.61439
7.60969
7.60463
7.60121
7.59909
7.59648
7.59606
7.59743
7.59783
7.59958
7.60242
7.60372
7.60618
7.60921
7.61121
7.61426
7.61675
7.61917
7.62224
7.62395
7.62669
7.62809
7.6304
7.63188
7.63386
7.63537
7.63728
7.63876
7.64053
7.64207
7.6797
7.74007
7.77707
7.84409
7.88019
7.94232
7.99505
8.04378
8.11933
8.15982
8.2433
8.30832
8.32785
8.33377
8.33679
8.33921
8.34094
8.34197
8.34342
8.34487
8.34559
8.3457
8.34632
8.3471
8.34701
8.34608
8.34558
8.34523
8.34487
8.34263
8.34068
8.33861
8.33664
8.33455
8.33104
8.32697
8.32283
8.31813
8.31332
8.2797
8.11317
8.00157
7.88379
7.75891
7.63279
7.55279
7.52993
7.51543
7.50175
7.48831
7.47449
7.45999
7.44465
7.42835
7.41109
7.39284
7.37296
7.35123
7.32776
7.30245
7.27509
7.24574
7.2141
7.18201
7.14809
7.12498
7.12038
7.16755
7.45943
8.24174
9.38747
9.38212
7.59998
6.79858
6.54895
6.4455
6.38514
6.3413
6.30606
6.28021
6.27127
6.28099
6.29304
6.30404
6.31775
6.3453
6.40652
6.48867
6.60168
6.7996
7.27365
8.8486
9.77103
9.47844
7.71636
7.03669
6.77115
6.73378
6.75894
6.8211
6.92524
7.06149
7.10279
7.13626
7.16828
7.19889
7.228
7.25544
7.28098
7.30474
7.32717
7.34826
7.36797
7.38642
7.40373
7.42002
7.43535
7.44881
7.46109
7.47306
7.48435
7.49503
7.50503
7.51453
7.52293
7.52998
7.53674
7.54325
7.54927
7.55505
7.56029
7.56399
7.56749
7.57099
7.57414
7.57742
7.57895
7.58017
7.58148
7.58302
7.58369
7.58336
7.58309
7.58317
7.58257
7.5811
7.57959
7.57841
7.57649
7.57397
7.57172
7.56917
7.56597
7.56276
7.55952
7.55583
7.55191
7.54789
7.54349
7.539
7.53446
7.52897
7.52394
7.51777
7.51203
7.50574
7.49946
7.49299
7.48625
7.47951
7.47242
7.46565
7.45809
7.45161
7.44348
7.43684
7.42826
7.42079
7.41303
7.40486
7.39794
7.38927
7.38146
7.37466
7.36575
7.35795
7.35093
7.33797
7.24018
7.15976
7.04686
6.95634
6.90486
6.90234
6.90053
6.90048
6.90135
6.9013
6.9027
6.90488
6.90419
6.9044
6.90606
6.90534
6.90746
6.9131
6.91936
6.93041
6.94323
6.95403
6.96542
6.97309
6.97909
6.98417
6.98512
6.98623
6.98458
6.98469
6.98418
6.98535
6.9864
6.98845
6.99124
6.99426
6.99835
7.00203
7.00627
7.01024
7.01253
7.01637
7.01661
7.01684
7.01653
7.00982
7.01118
7.00278
6.99105
6.99069
6.95825
6.89028
6.59083
6.55962
6.53981
6.54777
6.53102
6.51152
6.50811
6.52878
6.48229
6.45653
6.46308
6.4829
6.43482
6.39069
6.39016
6.39641
6.44085
6.33179
6.28718
6.29034
6.29756
6.31011
6.35605
6.20484
6.14234
6.15537
6.16937
6.17617
6.18236
6.19749
6.21331
6.21331
5.95199
5.9337
5.96104
5.98115
5.99282
5.99764
5.99786
5.9958
5.99308
5.98985
5.98617
5.98241
5.97758
5.96897
5.95207
5.92043
5.86784
5.79177
5.69712
5.59658
5.52393
5.46125
5.46535
5.48237
5.51875
5.5607
5.60583
5.65115
5.69521
5.73726
5.77713
5.8151
5.85194
5.88905
5.92899
5.9764
6.03926
6.12466
6.19411
6.19628
6.17002
6.0969
5.95691
6.03237
6.07341
6.10106
6.12204
6.13409
6.135
6.10368
6.01132
5.90422
5.91713
5.8775
5.74831
5.51581
5.03211
5.17449
5.72993
6.10895
6.35343
6.59019
6.8668
7.04916
7.17107
7.29596
7.47144
7.5309
7.57902
7.64139
7.67152
7.66708
7.69196
7.68124
7.6637
7.66995
7.64488
7.62666
7.62234
7.56394
7.51337
7.21261
7.15148
7.13793
7.12003
7.11142
7.1005
7.09198
7.08556
7.077
7.07239
7.06391
7.0605
7.0538
7.05207
7.04794
7.04741
7.04513
7.04478
7.04384
7.04369
7.04293
7.0413
7.03968
7.03613
7.03313
7.02913
7.02505
7.02127
7.01509
7.00833
7.00144
6.99256
6.9843
6.977
6.96835
6.95987
6.95201
6.943
6.93478
6.92835
6.92186
6.91534
6.91048
6.90707
6.90364
6.90243
6.9031
6.90313
6.90451
6.90693
6.90803
6.91024
6.91304
6.91492
6.9178
6.92018
6.9225
6.92543
6.92705
6.92964
6.93092
6.93308
6.93441
6.93625
6.93763
6.93941
6.94076
6.94242
6.94385
6.96321
6.99921
7.0218
7.06229
7.08451
7.1219
7.15398
7.18344
7.2287
7.25347
7.29121
7.33661
7.35501
7.36125
7.36361
7.3647
7.36484
7.36423
7.36384
7.36333
7.36205
7.3602
7.35867
7.35721
7.35486
7.35174
7.34888
7.34612
7.34308
7.33844
7.33398
7.3293
7.32457
7.31953
7.31319
7.30632
7.29924
7.29153
7.28342
7.25082
7.16982
7.09568
7.0215
6.94467
6.86721
6.81188
6.78523
6.76644
6.74942
6.73323
6.71725
6.70122
6.68506
6.66875
6.65237
6.63595
6.61916
6.60192
6.58431
6.56626
6.54766
6.52852
6.50881
6.48978
6.47177
6.46246
6.46912
6.51571
6.74073
7.44589
9.03935
9.1673
7.21042
6.48726
6.27539
6.19023
6.14709
6.12022
6.10161
6.09011
6.08779
6.09427
6.10354
6.11386
6.12774
6.1514
6.1932
6.25462
6.35169
6.53971
6.98938
8.30683
9.63212
9.14108
7.11613
6.58491
6.41352
6.38121
6.38968
6.42217
6.47137
6.5232
6.54931
6.57201
6.59413
6.61562
6.63637
6.65628
6.67523
6.69326
6.71068
6.7275
6.74371
6.75938
6.77455
6.78928
6.80354
6.81667
6.82904
6.84127
6.85308
6.8645
6.87542
6.88595
6.89556
6.90402
6.91215
6.92004
6.92746
6.9346
6.9412
6.94645
6.95136
6.95625
6.9608
6.96539
6.96837
6.97096
6.97363
6.97644
6.97843
6.97946
6.98051
6.98186
6.98257
6.98245
6.98229
6.98241
6.98184
6.98071
6.97985
6.97869
6.97693
6.97523
6.97345
6.97127
6.96898
6.96654
6.96379
6.96099
6.95803
6.9544
6.95098
6.94674
6.94274
6.93834
6.93395
6.92937
6.92466
6.9199
6.91496
6.91019
6.90499
6.90044
6.89491
6.89021
6.88433
6.8791
6.87376
6.86826
6.86357
6.85789
6.85272
6.84823
6.8425
6.83737
6.83248
6.82141
6.75059
6.69359
6.61422
6.55152
6.5189
6.51948
6.52084
6.52366
6.5274
6.53078
6.53514
6.53993
6.54272
6.54578
6.54971
6.55243
6.55736
6.56541
6.57536
6.58946
6.60532
6.62011
6.63451
6.64606
6.65542
6.66304
6.66752
6.67073
6.67229
6.67456
6.677
6.68049
6.68428
6.68891
6.6942
6.70003
6.70634
6.71286
6.71895
6.72542
6.72928
6.73458
6.73537
6.73544
6.73454
6.72687
6.72667
6.71546
6.70243
6.69857
6.66137
6.58886
6.35349
6.31473
6.2961
6.302
6.28201
6.26263
6.26329
6.27586
6.22589
6.20465
6.21295
6.22135
6.16594
6.12701
6.12843
6.13419
6.14746
6.03721
6.00464
6.01062
6.01499
6.01768
6.01383
5.87386
5.83473
5.85186
5.86393
5.86739
5.8669
5.86491
5.84772
5.79665
5.62099
5.62124
5.64321
5.65932
5.66795
5.67033
5.66817
5.66371
5.65711
5.64843
5.63738
5.62354
5.60545
5.58097
5.54773
5.50388
5.44935
5.38698
5.323
5.2658
5.23169
5.20769
5.20927
5.22095
5.24744
5.27935
5.31508
5.35196
5.38872
5.42461
5.45941
5.49331
5.52684
5.56105
5.59764
5.63933
5.68941
5.74688
5.78769
5.78525
5.75886
5.70513
5.62875
5.68815
5.72188
5.74682
5.76464
5.77402
5.77189
5.7424
5.66898
5.59489
5.606
5.57189
5.46731
5.27974
4.90913
5.03337
5.46921
5.77331
5.9715
6.15829
6.3762
6.52445
6.62161
6.71778
6.8562
6.91244
6.95399
7.01151
7.04972
7.05513
7.08393
7.09082
7.08561
7.0993
7.09294
7.0851
7.08903
7.0473
7.00938
6.79239
6.74704
6.73936
6.73056
6.72704
6.72331
6.72006
6.71858
6.71468
6.7133
6.70877
6.70747
6.70396
6.70372
6.70213
6.70274
6.70235
6.70284
6.70316
6.70337
6.70339
6.70211
6.70018
6.69671
6.69279
6.68833
6.68362
6.67843
6.67145
6.66342
6.65462
6.6445
6.63466
6.62539
6.61536
6.60533
6.59555
6.58505
6.57542
6.56727
6.55927
6.55161
6.54541
6.54056
6.53635
6.53409
6.53344
6.53283
6.53329
6.53446
6.53497
6.53623
6.53792
6.53915
6.541
6.54257
6.5441
6.54591
6.54689
6.54833
6.54895
6.55
6.55053
6.5513
6.5518
6.55251
6.55296
6.55356
6.55402
6.56443
6.58824
6.60363
6.63138
6.64684
6.67253
6.6948
6.71517
6.74634
6.76367
6.78673
6.81814
6.83388
6.84039
6.8425
6.84292
6.8422
6.8407
6.83927
6.83767
6.83542
6.83269
6.83017
6.82768
6.82448
6.82072
6.81714
6.81362
6.80982
6.80491
6.80012
6.79514
6.79013
6.78487
6.77868
6.7721
6.76537
6.75813
6.75032
6.72387
6.67432
6.62235
6.57038
6.51725
6.46395
6.42326
6.39951
6.38265
6.36813
6.35478
6.34191
6.32921
6.31654
6.30383
6.29111
6.27836
6.26539
6.25218
6.23875
6.22513
6.21129
6.19737
6.18358
6.17101
6.1609
6.15805
6.16969
6.20927
6.38185
6.92373
8.66072
8.10486
6.87198
6.31339
6.11962
6.04281
6.00725
5.9882
5.97726
5.97201
5.97232
5.97746
5.98514
5.99472
6.00785
6.02824
6.06103
6.11237
6.20078
6.38029
6.80655
7.89295
9.36233
8.74304
6.69103
6.33454
6.20812
6.17976
6.17676
6.19028
6.21265
6.23625
6.25365
6.27021
6.28679
6.3032
6.31927
6.33489
6.34994
6.36444
6.37854
6.39225
6.40557
6.41851
6.4311
6.44337
6.45529
6.46641
6.47699
6.48745
6.49762
6.5075
6.51705
6.52631
6.5349
6.54265
6.55015
6.55748
6.56447
6.57126
6.57764
6.58303
6.58814
6.59322
6.59805
6.60294
6.60659
6.60992
6.6133
6.61678
6.61964
6.62172
6.6238
6.6261
6.62789
6.62902
6.63008
6.63135
6.63205
6.63226
6.63271
6.63284
6.63247
6.63218
6.63175
6.63096
6.63013
6.62908
6.62777
6.62639
6.62477
6.62265
6.62053
6.61781
6.61515
6.61215
6.60913
6.60592
6.60259
6.59918
6.59565
6.59218
6.58845
6.58509
6.5811
6.57757
6.57324
6.56928
6.5653
6.56126
6.55778
6.55365
6.54986
6.54656
6.54241
6.53858
6.53463
6.52411
6.46925
6.42588
6.36599
6.31944
6.29754
6.29952
6.3023
6.30637
6.31134
6.31622
6.32185
6.32777
6.33211
6.33643
6.34136
6.34562
6.35179
6.3609
6.37242
6.38777
6.40493
6.42155
6.43742
6.45089
6.46198
6.47098
6.47726
6.48162
6.48479
6.48821
6.49211
6.49679
6.50191
6.50781
6.51429
6.52146
6.52877
6.53652
6.54333
6.55061
6.5548
6.55994
6.55995
6.55865
6.55561
6.54587
6.54238
6.52731
6.51176
6.50255
6.4595
6.3843
6.18773
6.14222
6.1233
6.12537
6.10197
6.0823
6.08426
6.08816
6.03599
6.01767
6.02473
6.02179
5.96158
5.92684
5.92747
5.9287
5.91717
5.81097
5.78733
5.79283
5.79179
5.78283
5.74749
5.62585
5.60266
5.61974
5.62845
5.62743
5.61966
5.6039
5.56918
5.50744
5.38928
5.39438
5.40998
5.4216
5.42688
5.42642
5.4218
5.4143
5.4039
5.39057
5.37402
5.35378
5.32892
5.29851
5.2621
5.22011
5.17435
5.12816
5.08605
5.05264
5.0356
5.02619
5.02666
5.03492
5.05447
5.0792
5.1081
5.1389
5.17042
5.20189
5.23298
5.26375
5.29453
5.32601
5.35925
5.39564
5.43606
5.47727
5.50381
5.501
5.47984
5.44344
5.4031
5.45072
5.47959
5.50268
5.51876
5.52685
5.52365
5.4972
5.43837
5.38549
5.39535
5.36596
5.27862
5.12195
4.82569
4.93753
5.2967
5.55288
5.72197
5.878
6.06004
6.18854
6.27203
6.3513
6.46736
6.52248
6.55926
6.61043
6.65278
6.66618
6.69557
6.71616
6.72186
6.74043
6.74791
6.74891
6.75852
6.72814
6.69848
6.53486
6.50076
6.49773
6.49519
6.49582
6.49687
6.49749
6.49939
6.49868
6.49959
6.49761
6.49785
6.4963
6.49717
6.49709
6.49854
6.49928
6.50037
6.50145
6.50196
6.50244
6.50141
6.49937
6.49594
6.49158
6.48686
6.48181
6.47592
6.4685
6.4598
6.45005
6.43928
6.42866
6.41843
6.40774
6.39699
6.38635
6.37524
6.36502
6.35608
6.34743
6.33932
6.33258
6.32714
6.32261
6.31991
6.31867
6.31777
6.31779
6.31837
6.31858
6.31938
6.32053
6.32143
6.32277
6.32394
6.32506
6.32633
6.32699
6.32788
6.32818
6.32869
6.32884
6.32911
6.32919
6.32938
6.32941
6.32951
6.3295
6.3352
6.35175
6.36286
6.38313
6.39461
6.4135
6.43005
6.44514
6.46813
6.48115
6.49749
6.52017
6.53298
6.53955
6.54187
6.54222
6.54131
6.53959
6.53783
6.53587
6.53332
6.53032
6.52749
6.52464
6.52119
6.5173
6.51352
6.5098
6.50582
6.50097
6.49619
6.49125
6.4863
6.48113
6.47523
6.469
6.46265
6.45586
6.44838
6.4274
6.39286
6.35451
6.31575
6.27634
6.23695
6.20524
6.18426
6.16885
6.15583
6.14408
6.13297
6.12215
6.11145
6.10081
6.0902
6.0796
6.06888
6.05803
6.04709
6.0361
6.02512
6.01436
6.00419
5.99562
5.99017
5.99107
6.00451
6.04132
6.17739
6.58422
8.24502
7.51393
6.57634
6.1596
5.99992
5.93577
5.90746
5.89407
5.88786
5.88607
5.88781
5.89238
5.89891
5.90727
5.91857
5.93517
5.96085
6.00202
6.0746
6.22032
6.55057
7.34443
8.86425
8.2924
6.41776
6.17463
6.07629
6.04794
6.03863
6.04143
6.05078
6.0628
6.0747
6.08717
6.10013
6.11324
6.1263
6.13915
6.15168
6.16388
6.17582
6.18751
6.19892
6.21007
6.22096
6.2316
6.24196
6.25172
6.26109
6.27035
6.27938
6.28819
6.29676
6.3051
6.31291
6.32007
6.32701
6.33385
6.34041
6.34683
6.3529
6.35819
6.36323
6.36827
6.3731
6.37797
6.38185
6.38545
6.38911
6.39283
6.39604
6.39859
6.40115
6.40387
6.40616
6.40788
6.40954
6.41137
6.41269
6.41357
6.41467
6.41546
6.4158
6.41624
6.41649
6.41642
6.41636
6.41603
6.41547
6.41484
6.41392
6.41261
6.41118
6.40926
6.40733
6.40509
6.40281
6.40034
6.39778
6.3951
6.39234
6.38959
6.38667
6.38397
6.38083
6.37795
6.37447
6.37123
6.368
6.36477
6.36197
6.3587
6.35566
6.35301
6.3497
6.34654
6.34301
6.33257
6.28828
6.25375
6.2065
6.17043
6.15528
6.15796
6.16143
6.16608
6.17162
6.17722
6.18344
6.18987
6.19496
6.19989
6.20527
6.21028
6.21703
6.22663
6.23882
6.25464
6.27235
6.28985
6.30648
6.321
6.33306
6.34288
6.35021
6.35526
6.35934
6.36342
6.3681
6.37343
6.37924
6.3858
6.39286
6.40067
6.40841
6.41664
6.42361
6.43092
6.43482
6.43909
6.43776
6.43455
6.42878
6.41647
6.40901
6.38982
6.37111
6.35596
6.3072
6.23006
6.05898
6.00765
5.98753
5.98508
5.95853
5.93834
5.93984
5.93543
5.88214
5.8655
5.86961
5.85625
5.79337
5.76181
5.75998
5.75493
5.7247
5.6256
5.60804
5.61114
5.60395
5.5847
5.53235
5.43041
5.41685
5.43152
5.43642
5.4312
5.41766
5.39358
5.35289
5.29587
5.21454
5.21879
5.22824
5.23544
5.23746
5.23427
5.22745
5.21733
5.20407
5.18766
5.16795
5.14475
5.11777
5.08697
5.05288
5.01675
4.98058
4.94704
4.91896
4.89854
4.88979
4.88587
4.88601
4.89212
4.90673
4.92614
4.94982
4.9759
5.00333
5.0313
5.05942
5.08756
5.11591
5.14486
5.17498
5.20683
5.24014
5.27143
5.29062
5.2894
5.27501
5.2528
5.23356
5.27242
5.29775
5.31933
5.33431
5.34174
5.33846
5.31547
5.26832
5.23004
5.23887
5.21352
5.13922
5.00573
4.76303
4.86539
5.17036
5.3926
5.54137
5.67642
5.83375
5.94889
6.02368
6.09198
6.19268
6.24749
6.28151
6.32798
6.37261
6.39224
6.42169
6.45135
6.46584
6.48804
6.50546
6.51393
6.528
6.50606
6.48317
6.35695
6.33172
6.33281
6.33519
6.3395
6.34427
6.34809
6.3527
6.35449
6.35728
6.35721
6.35873
6.3586
6.36038
6.36138
6.36352
6.36504
6.36663
6.36823
6.36902
6.36982
6.36899
6.36693
6.36354
6.35894
6.35406
6.34881
6.34251
6.33483
6.32575
6.31546
6.30432
6.29327
6.28252
6.27149
6.26039
6.24933
6.23799
6.22752
6.21819
6.20924
6.20095
6.19397
6.18828
6.18365
6.18073
6.17919
6.17815
6.17793
6.17819
6.17824
6.17879
6.17963
6.18035
6.1814
6.18234
6.18324
6.1842
6.18469
6.18527
6.18539
6.18562
6.18557
6.18556
6.18543
6.18535
6.18516
6.18498
6.18474
6.18778
6.19953
6.2078
6.22318
6.23204
6.24651
6.25932
6.27098
6.28867
6.29888
6.3113
6.32848
6.33875
6.34508
6.34765
6.34813
6.34727
6.34556
6.34375
6.34171
6.3391
6.33606
6.33315
6.33021
6.32673
6.32286
6.31907
6.31533
6.31136
6.30665
6.30198
6.29717
6.29236
6.28736
6.28175
6.27584
6.26981
6.2634
6.25622
6.23937
6.21343
6.18395
6.1538
6.12322
6.09273
6.06714
6.04862
6.03449
6.02257
6.01191
6.00195
5.99236
5.98297
5.97368
5.96447
5.95531
5.94611
5.93686
5.92762
5.91845
5.90945
5.90091
5.8933
5.88755
5.88512
5.8883
5.90139
5.93667
6.04724
6.35763
7.62841
7.02143
6.32399
6.01741
5.89715
5.84884
5.82857
5.82021
5.81749
5.81794
5.8206
5.82489
5.83045
5.83736
5.84635
5.85892
5.87769
5.90751
5.9594
6.05966
6.2749
6.77291
7.73266
7.77387
6.23086
6.06175
5.98284
5.95448
5.94264
5.93973
5.94246
5.94872
5.95684
5.96632
5.97666
5.98742
5.99832
6.0092
6.01993
6.03048
6.04087
6.0511
6.06114
6.07099
6.08065
6.09011
6.09933
6.1081
6.11657
6.12494
6.13313
6.14114
6.14898
6.15661
6.1638
6.17047
6.17697
6.18339
6.18957
6.19565
6.20141
6.20654
6.21145
6.21637
6.22111
6.22587
6.22981
6.23349
6.23724
6.24104
6.24438
6.24716
6.24993
6.25286
6.25539
6.25742
6.25939
6.26151
6.26315
6.2644
6.26586
6.26701
6.26773
6.26858
6.26922
6.26956
6.26992
6.27001
6.26989
6.26969
6.26916
6.26832
6.2673
6.26586
6.26436
6.26257
6.26074
6.25871
6.25661
6.25438
6.25209
6.24976
6.24733
6.24504
6.24242
6.23994
6.23698
6.23419
6.23142
6.22868
6.22629
6.22354
6.22096
6.21869
6.21586
6.21308
6.20972
6.19924
6.16248
6.13415
6.09572
6.06698
6.05639
6.05942
6.06324
6.06816
6.07395
6.07989
6.08638
6.09302
6.09848
6.1037
6.10926
6.11463
6.12165
6.13142
6.14385
6.15972
6.17757
6.19546
6.21244
6.22753
6.24019
6.25051
6.25847
6.26396
6.26858
6.27305
6.27817
6.28386
6.29001
6.29691
6.30421
6.31229
6.32013
6.32845
6.33526
6.34221
6.34551
6.34856
6.34561
6.34023
6.33152
6.3164
6.30474
6.28141
6.25921
6.23799
6.184
6.10523
5.95184
5.8956
5.8737
5.86653
5.83717
5.81631
5.81618
5.8042
5.75058
5.73465
5.73488
5.71235
5.64843
5.61911
5.61388
5.60219
5.55868
5.46807
5.45423
5.454
5.44112
5.4142
5.35508
5.27105
5.26263
5.2738
5.27509
5.26656
5.24931
5.22154
5.18127
5.13301
5.07526
5.07669
5.0807
5.08387
5.08293
5.07755
5.06877
5.0567
5.04156
5.02343
5.00238
4.97846
4.95188
4.9231
4.89305
4.86311
4.83497
4.81051
4.79139
4.77847
4.77366
4.77185
4.77207
4.77683
4.78788
4.80325
4.82276
4.84496
4.86899
4.89404
4.91962
4.94549
4.97167
4.99831
5.02565
5.05377
5.08191
5.10699
5.12244
5.12359
5.11578
5.10463
5.0984
5.1307
5.1533
5.17358
5.18781
5.19492
5.1921
5.17265
5.13505
5.1073
5.11527
5.09338
5.02947
4.91437
4.7126
4.80716
5.07126
5.2678
5.40135
5.52106
5.66003
5.76518
5.83393
5.89467
5.98389
6.0383
6.07057
6.11326
6.15868
6.18306
6.21227
6.24798
6.26966
6.29477
6.31981
6.33483
6.35273
6.33786
6.32101
6.22282
6.20515
6.21011
6.21675
6.22447
6.23245
6.23911
6.24608
6.25003
6.25449
6.256
6.25868
6.25969
6.26229
6.26412
6.26686
6.269
6.27101
6.27304
6.27407
6.27514
6.27447
6.27244
6.2691
6.26438
6.25941
6.25404
6.24751
6.23967
6.23037
6.21977
6.20843
6.19714
6.18611
6.17491
6.16365
6.15241
6.14105
6.1305
6.12098
6.11191
6.10357
6.09651
6.09072
6.08607
6.08306
6.08136
6.08024
6.07989
6.07996
6.07992
6.08031
6.08096
6.08156
6.08243
6.08323
6.08399
6.08476
6.08514
6.08554