/*--------------------------------*- C++ -*----------------------------------*\
| =========                 |                                                 |
| \\      /  F ield         | OpenFOAM: The Open Source CFD Toolbox           |
|  \\    /   O peration     | Version:  v2012                                 |
|   \\  /    A nd           | Website:  www.openfoam.com                      |
|    \\/     M anipulation  |                                                 |
\*---------------------------------------------------------------------------*/
FoamFile
{
    version     2.0;
    format      ascii;
    class       volScalarField;
    location    "853";
    object      k;
}
// * * * * * * * * * * * * * * * * * * * * * * * * * * * * * * * * * * * * * //

dimensions      [0 2 -2 0 0 0 0];


internalField   nonuniform List<scalar> 
103390
(
0.0895435
0.0289408
0.0305134
0.0188338
0.0166795
0.0133997
0.0117484
0.0103584
0.00935848
0.00857769
0.00797103
0.0074877
0.00709998
0.00679125
0.0065455
0.00633664
0.00616059
0.00602031
0.00590669
0.00581674
0.00574667
0.00569055
0.00566367
0.00565288
0.00563108
0.00562291
0.00562492
0.00563908
0.00566006
0.00569558
0.00574952
0.005794
0.00583338
0.00588796
0.0059452
0.006015
0.00610608
0.00618759
0.00625262
0.00633997
0.00642022
0.00654571
0.00665255
0.00673886
0.0068368
0.00696416
0.007104
0.00721245
0.00731534
0.00746334
0.00761949
0.00773865
0.00785885
0.00803263
0.00820175
0.00829514
0.00849118
0.00867602
0.00877541
0.00898828
0.0091818
0.0092927
0.00953082
0.0096994
0.00986424
0.010106
0.0102346
0.0105026
0.0106504
0.0109069
0.0111027
0.0113226
0.0115514
0.0117697
0.012013
0.0122383
0.0125052
0.0127164
0.0130305
0.0132114
0.0135633
0.0137514
0.0141036
0.0143675
0.0146391
0.0150049
0.0152333
0.0156125
0.015981
0.0162167
0.0166553
0.0170544
0.0173124
0.0177957
0.0181108
0.0182863
0.0186527
0.0190218
0.0193277
0.0198331
0.0204213
0.0209084
0.0213687
0.0220682
0.0226749
0.023068
0.0238864
0.024612
0.0249168
0.0258734
0.0266802
0.0269699
0.0280874
0.0288851
0.0293202
0.0306886
0.0310059
0.0322717
0.0334573
0.0336085
0.0353883
0.0353894
0.0373013
0.0373948
0.039285
0.0395495
0.0411554
0.0418632
0.0428808
0.0443585
0.0443947
0.0469803
0.0457691
0.049488
0.0476234
0.0513832
0.052819
0.0512718
0.0582953
0.0531195
0.0599165
0.0672362
0.0584574
0.0704277
0.079359
0.0646152
0.0807684
0.0942243
0.0753265
0.0926287
0.109011
0.111278
0.0882343
0.133395
0.159248
0.130357
0.115788
0.155071
0.216893
0.171776
0.168297
0.129113
0.227446
0.304801
0.217849
0.193105
0.184573
0.15487
0.269724
0.397462
0.281497
0.222953
0.192384
0.18113
0.173166
0.178702
0.15392
0.353344
0.473218
0.282148
0.229304
0.187396
0.169196
0.154001
0.144986
0.138167
0.133753
0.130919
0.129573
0.129258
0.130286
0.132528
0.136268
0.142112
0.152894
0.171084
0.197047
0.295965
0.486963
0.484804
0.327069
0.275209
0.22334
0.189112
0.161363
0.139639
0.121927
0.107382
0.0952628
0.0850846
0.0764784
0.0691799
0.0630042
0.0578531
0.0537012
0.050522
0.0482934
0.0467225
0.0463496
0.0939328
0.0963131
0.0355541
0.029707
0.0196436
0.0167019
0.0128485
0.0111116
0.0101251
0.0131453
0.00782949
0.00258168
0.00165696
0.000741762
0.000382142
0.000130597
0.000151014
0.000369467
0.000800316
0.00134679
0.00288813
0.00325786
0.00342579
0.00439739
0.00669287
0.00737844
0.00640755
0.00876276
0.0101834
0.0106907
0.0102772
0.0138967
0.0141625
0.0131804
0.0166939
0.0170198
0.016344
0.0194425
0.0194765
0.0190452
0.0214068
0.0207051
0.0219107
0.0229289
0.0226692
0.024531
0.0242763
0.0254387
0.0256872
0.0263401
0.0269774
0.0271758
0.0279576
0.0279066
0.0286701
0.028512
0.0291556
0.0289665
0.0294167
0.0291404
0.0295373
0.0294663
0.0292352
0.0294739
0.0290264
0.0291264
0.0289736
0.0285092
0.0286069
0.0283005
0.0278264
0.0278403
0.0275064
0.0270499
0.0269584
0.0266611
0.0262368
0.0260433
0.0258093
0.0254366
0.0251644
0.0250089
0.0246824
0.0243562
0.0242726
0.0239813
0.023647
0.023576
0.0233113
0.0229964
0.0229282
0.0226596
0.0223949
0.0222985
0.0220172
0.0218624
0.0216844
0.0214139
0.0213238
0.0210279
0.0209397
0.0206646
0.020526
0.0202914
0.0201227
0.0198989
0.0197307
0.0195069
0.0193239
0.0191436
0.0189343
0.0188507
0.0186062
0.0185483
0.0183201
0.0182056
0.0180767
0.0178379
0.0177983
0.0176082
0.0173906
0.0173598
0.0171535
0.0169009
0.016838
0.0166213
0.0163892
0.0162614
0.0161311
0.0159231
0.0157274
0.015622
0.0155013
0.0153127
0.0151473
0.0150392
0.0149545
0.0148239
0.0146504
0.0145694
0.014471
0.0144199
0.0143314
0.0142176
0.0141468
0.0141017
0.0140598
0.0140487
0.0139815
0.0138607
0.0137756
0.013724
0.0136802
0.0136599
0.0136846
0.0137657
0.0138299
0.0139329
0.0140991
0.0142919
0.0145221
0.0147971
0.0151211
0.0155119
0.0159569
0.0164605
0.0170748
0.0178243
0.0187293
0.0198275
0.0211991
0.0228781
0.0251875
0.0276715
0.0326435
0.0353004
0.0510068
0.0454479
0.117482
0.0200589
0.0244153
0.00262901
0.00385457
0.00245417
0.0019038
0.00136327
0.00100705
0.000747635
0.000561617
0.000424161
0.000319828
0.000238491
0.000174633
0.000125341
0.000140874
0.00022121
0.000390388
0.00076885
0.00139057
0.00288865
0.0024531
0.0174499
0.0173612
0.0154969
0.00829508
0.00856909
0.00672335
0.00604444
0.00535644
0.00490404
0.00453888
0.00422082
0.00395834
0.00374242
0.0035624
0.00341129
0.0032842
0.00317823
0.00308823
0.00301054
0.00294531
0.00289083
0.00284597
0.00280958
0.00278028
0.00275853
0.00274506
0.00273399
0.00272756
0.00272587
0.00272899
0.00273694
0.00275007
0.00276856
0.00278837
0.00280901
0.00283517
0.00286404
0.00289865
0.00293806
0.00297764
0.00301549
0.003061
0.00310726
0.00316531
0.00321956
0.00327063
0.00332824
0.00339536
0.00346525
0.00352806
0.00359244
0.00367323
0.0037543
0.00382594
0.00390212
0.0039978
0.00408781
0.00415606
0.00426765
0.00436716
0.00444023
0.00456377
0.0046714
0.004752
0.00488853
0.00499253
0.00510114
0.00523978
0.00533135
0.00548879
0.00558959
0.00574656
0.0058723
0.00601336
0.00615835
0.00630024
0.00645624
0.00660464
0.00677527
0.00691934
0.00711767
0.00724692
0.00747094
0.00760506
0.00783587
0.00801396
0.00820271
0.00844235
0.00860632
0.00886609
0.00911074
0.00928485
0.00958741
0.00985666
0.0100496
0.0103846
0.0105302
0.0106131
0.0107932
0.0109801
0.01117
0.0115338
0.0119467
0.0122994
0.0126467
0.0131494
0.0135833
0.013901
0.0144982
0.0150122
0.0152858
0.0159902
0.0165667
0.0168489
0.017679
0.0182759
0.0186835
0.0196713
0.0200134
0.0209797
0.0218439
0.0220999
0.0233681
0.0235428
0.0249043
0.0251678
0.0265113
0.0268956
0.0280775
0.0287405
0.0295885
0.0307057
0.0310045
0.0327501
0.0323628
0.034761
0.0340771
0.0366597
0.03765
0.0373482
0.0414919
0.039197
0.0441039
0.0479698
0.0442755
0.0526483
0.0567306
0.0505857
0.0593439
0.0648753
0.0576868
0.0695334
0.0782117
0.07861
0.0726721
0.0971315
0.105928
0.0947546
0.0939289
0.115632
0.135831
0.118936
0.118837
0.114495
0.152673
0.168748
0.139353
0.133232
0.132272
0.136588
0.170962
0.192518
0.154668
0.137259
0.127064
0.124128
0.125097
0.133696
0.146528
0.169667
0.179783
0.140355
0.124069
0.110328
0.102573
0.0968046
0.0932122
0.0909131
0.0898097
0.0896848
0.0903362
0.0917789
0.0942234
0.0975081
0.101556
0.106083
0.110762
0.11559
0.122362
0.132246
0.14524
0.136227
0.124955
0.113387
0.102721
0.0929543
0.0842027
0.0763626
0.0693281
0.0630214
0.0573722
0.0523276
0.0478449
0.0438936
0.0404599
0.03756
0.0352654
0.033696
0.0326462
0.0317237
0.0318543
0.0369947
0.0377809
0.0238704
0.0190059
0.014697
0.0123805
0.0103873
0.00911023
0.00827956
0.00863665
0.00767457
0.00532038
0.00421192
0.00347735
0.00310064
0.00291308
0.00246406
0.00203074
0.0018833
0.00189563
0.00209822
0.00195236
0.00192737
0.00215833
0.00272855
0.00304414
0.00288793
0.0036301
0.00431592
0.00488468
0.00490688
0.00631317
0.00707975
0.00686503
0.00834808
0.00912589
0.00898545
0.0104547
0.011008
0.0108373
0.0118379
0.0118088
0.0124478
0.0132587
0.0132454
0.0143663
0.0144462
0.0151602
0.0154904
0.0159136
0.016434
0.0166065
0.0171751
0.0172046
0.0177335
0.0176966
0.0181296
0.0180661
0.0183629
0.018227
0.0184713
0.0184623
0.0183124
0.0184571
0.0181749
0.0182119
0.018116
0.0177951
0.0178249
0.0176212
0.0172811
0.017252
0.0170223
0.0166912
0.0165944
0.0163824
0.0160742
0.0159131
0.0157374
0.0154697
0.0152621
0.0151359
0.0149068
0.014668
0.01459
0.0143921
0.0141534
0.0140864
0.0139094
0.0136863
0.0136236
0.0134455
0.0132579
0.0131797
0.0129923
0.0128771
0.0127536
0.0125687
0.0124956
0.0123002
0.0122275
0.0120463
0.0119434
0.011785
0.011666
0.0115134
0.0113953
0.0112448
0.0111172
0.0110067
0.0108962
0.0108447
0.0107231
0.0106827
0.0105734
0.0105078
0.0104415
0.0103271
0.0102943
0.0102074
0.0100971
0.0100718
0.00996044
0.00979897
0.00973153
0.0096067
0.00946276
0.00936386
0.00927236
0.00915368
0.00903137
0.00894874
0.00886708
0.00876398
0.00866408
0.00858624
0.0085242
0.00845144
0.008364
0.00830591
0.00824693
0.00820788
0.00816257
0.00811342
0.00807484
0.00804974
0.00803078
0.0080218
0.00796464
0.00788032
0.00780056
0.00773226
0.00767284
0.00762612
0.00762057
0.00765979
0.00771782
0.0078005
0.00790296
0.0080237
0.00816501
0.00832926
0.00851871
0.00873701
0.00898296
0.00926446
0.00959217
0.00997105
0.0104102
0.0109216
0.0115242
0.0122356
0.013101
0.0141113
0.0155009
0.0167119
0.0194745
0.018222
0.0256094
0.00761295
0.00411471
0.0021854
0.00323261
0.00378288
0.004091
0.00419473
0.00419909
0.00415725
0.00409483
0.00402452
0.00395217
0.00388217
0.00381975
0.00377077
0.00374813
0.0037559
0.0037844
0.0037801
0.00358352
0.0029723
0.00168587
0.00278932
0.00534558
0.0127989
0.0148388
0.0162377
0.0168377
0.0165809
0.0165363
0.0162645
0.0160144
0.0155617
0.0151108
0.0146801
0.0142766
0.0139016
0.0135557
0.013243
0.012965
0.0127138
0.0124883
0.0122897
0.0121166
0.0119677
0.0118411
0.0117292
0.0116426
0.0115803
0.011531
0.0114976
0.011479
0.0114795
0.0114951
0.011522
0.0115643
0.011617
0.0116843
0.0117634
0.0118603
0.0119632
0.0120766
0.0121957
0.0123334
0.01248
0.0126448
0.0128075
0.0129727
0.0131582
0.0133627
0.013569
0.0137685
0.0139788
0.0142257
0.0144655
0.0146924
0.0149377
0.0152242
0.0154875
0.0157149
0.0160478
0.0163338
0.0165727
0.016936
0.0172427
0.017499
0.0178878
0.0181916
0.0185156
0.018899
0.0191756
0.0196083
0.0199018
0.0203333
0.0206827
0.021071
0.0214634
0.0218482
0.0222638
0.02266
0.0231041
0.0234863
0.0239878
0.02433
0.0248858
0.0252326
0.0258
0.0262383
0.0267041
0.0272711
0.0276718
0.0282852
0.0288454
0.0292603
0.0299494
0.0305459
0.0309898
0.0317236
0.0319201
0.0320221
0.0322757
0.0325531
0.0328998
0.0336656
0.0345085
0.0352283
0.0359422
0.0369298
0.0377647
0.0384073
0.0395296
0.0404605
0.0410125
0.042274
0.0432687
0.0438316
0.0452503
0.0462583
0.0470211
0.0485911
0.0492476
0.050777
0.0520799
0.0526093
0.054425
0.0548505
0.0567322
0.0572902
0.0590837
0.0597863
0.06136
0.0623667
0.0635621
0.0650197
0.0656593
0.0676955
0.0676965
0.0703216
0.0701411
0.073009
0.0741584
0.0745102
0.0783898
0.0771107
0.0822726
0.0853467
0.0835794
0.091676
0.0942622
0.0913209
0.0961577
0.0989355
0.096669
0.107022
0.112742
0.113352
0.114253
0.13014
0.132866
0.129961
0.133989
0.147312
0.153436
0.147274
0.150356
0.155776
0.169719
0.167901
0.158807
0.159187
0.16242
0.172061
0.175327
0.169347
0.15753
0.15328
0.149603
0.149627
0.152437
0.160642
0.169046
0.143947
0.140284
0.139393
0.132982
0.126929
0.122351
0.119272
0.117239
0.116122
0.115722
0.115828
0.116387
0.117417
0.118685
0.119813
0.1202
0.11905
0.115836
0.111484
0.108419
0.107778
0.113446
0.122903
0.123864
0.120573
0.116389
0.111421
0.106579
0.101845
0.0973285
0.0930305
0.0889652
0.0851402
0.0815703
0.078278
0.0753013
0.0727127
0.0706631
0.0694066
0.0684909
0.0669706
0.0642972
0.0594481
0.0667731
0.0613326
0.0529746
0.0474023
0.0424315
0.0386905
0.0356535
0.0335549
0.033378
0.0328813
0.0272685
0.0230711
0.0203328
0.0186742
0.0178587
0.0154366
0.0128899
0.0116125
0.0111365
0.0108158
0.00961749
0.00920973
0.00955583
0.0104209
0.0113641
0.0113662
0.0129222
0.0148109
0.0169171
0.0173296
0.0201252
0.0229324
0.0228846
0.0255789
0.0280937
0.0281275
0.0306919
0.0324878
0.0322518
0.0335018
0.0339218
0.0349855
0.0366815
0.0368331
0.0387443
0.0391669
0.0403525
0.0411052
0.0418076
0.0427835
0.0431097
0.0440892
0.0442053
0.045073
0.0450898
0.0457767
0.0457465
0.0462071
0.0460505
0.0464065
0.0464364
0.0462081
0.0464155
0.0459951
0.0460172
0.0458734
0.0453558
0.0453591
0.0450353
0.0444628
0.0443672
0.0439854
0.0434133
0.0432084
0.0428396
0.0422949
0.0419825
0.0416597
0.0411798
0.0407897
0.0405417
0.0401284
0.0396833
0.0395165
0.0391606
0.0387153
0.0385697
0.0382494
0.0378281
0.0376917
0.0373653
0.0370047
0.0368415
0.0364909
0.0362589
0.0360191
0.0356611
0.0355047
0.0351302
0.0349716
0.034621
0.0344059
0.0340907
0.033846
0.0335372
0.033292
0.0329863
0.0327194
0.0325199
0.0323423
0.0322507
0.0320643
0.0319873
0.031825
0.0317134
0.0316093
0.0314392
0.0313727
0.0312398
0.0310731
0.0310242
0.0308086
0.0304678
0.0302921
0.0300416
0.0297395
0.0295062
0.0292978
0.0290574
0.0287949
0.0285966
0.0284114
0.0282058
0.0279938
0.0278131
0.0276669
0.0275198
0.0273554
0.0272239
0.0271
0.0270098
0.0269274
0.0268519
0.0267804
0.0267367
0.026712
0.0267009
0.0265523
0.0263415
0.0261077
0.025891
0.0256972
0.0255287
0.0254783
0.025557
0.0257195
0.0259317
0.0261671
0.0264362
0.0267399
0.0270778
0.0274503
0.0278527
0.0282877
0.0287652
0.0292778
0.0298165
0.0303791
0.0309624
0.0315533
0.0321505
0.0326842
0.0332632
0.0334261
0.0337448
0.0328758
0.0299007
0.0259915
0.00919865
0.00767169
0.0112385
0.0171499
0.0207613
0.0228118
0.0238424
0.0242864
0.0244023
0.024328
0.0241396
0.0238796
0.0235773
0.0232561
0.0229351
0.02263
0.0223354
0.0219697
0.0212531
0.0194886
0.0156698
0.00842565
0.00433095
0.00511185
0.0143309
0.0180552
0.0198029
0.0211173
0.0215987
0.0221822
0.0224965
0.0227967
0.0227522
0.0226405
0.0224906
0.0223193
0.0221352
0.0219461
0.0217625
0.0215923
0.0214309
0.0212781
0.0211395
0.021016
0.0209086
0.0208157
0.0207302
0.0206667
0.0206354
0.0206123
0.0206033
0.0206067
0.0206299
0.0206657
0.0207119
0.0207807
0.0208642
0.0209615
0.0210711
0.021197
0.0213251
0.0214718
0.0216307
0.0218059
0.0219922
0.0221873
0.0223876
0.022599
0.0228298
0.0230734
0.0233157
0.0235622
0.0238219
0.0241107
0.0243879
0.0246626
0.0249586
0.0252855
0.0255859
0.0258668
0.0262424
0.0265628
0.0268536
0.0272592
0.0275994
0.0279052
0.0283314
0.0286737
0.0290426
0.0294572
0.0297768
0.0302425
0.0305741
0.0310405
0.031423
0.031846
0.0322688
0.0326859
0.0331312
0.0335581
0.0340287
0.034442
0.0349654
0.0353384
0.0359146
0.0362896
0.0368791
0.0373389
0.0378306
0.0384124
0.0388384
0.0394732
0.0400443
0.040485
0.0411912
0.0417953
0.0422624
0.0429979
0.0431016
0.0431483
0.0433021
0.043494
0.0438169
0.0446037
0.0454562
0.0461947
0.0469385
0.0479358
0.0487789
0.0494633
0.0505897
0.0515139
0.0521211
0.0533776
0.0543613
0.054996
0.0564067
0.0574264
0.0582693
0.0598025
0.0605587
0.0620753
0.0633504
0.0640025
0.0657264
0.0662964
0.0680722
0.0687767
0.0704652
0.0713022
0.0728233
0.0739143
0.0751558
0.0765987
0.0774462
0.0793163
0.079734
0.0820464
0.0824209
0.0849482
0.0861531
0.0869924
0.0901043
0.0899197
0.0942494
0.0966104
0.0964657
0.102957
0.104732
0.104052
0.107369
0.108928
0.109722
0.118031
0.121896
0.123539
0.127442
0.137126
0.137877
0.140143
0.145541
0.152527
0.153186
0.153386
0.158326
0.165471
0.165588
0.159482
0.160957
0.16407
0.168441
0.175887
0.163325
0.153094
0.154531
0.155367
0.154156
0.155057
0.15745
0.161698
0.161486
0.130314
0.134451
0.141808
0.137829
0.134025
0.130659
0.128533
0.127125
0.126411
0.126121
0.126171
0.126439
0.126819
0.12694
0.126565
0.125402
0.123531
0.121711
0.121596
0.124629
0.130979
0.139576
0.148933
0.147828
0.144918
0.140476
0.13549
0.130521
0.125664
0.121029
0.116631
0.112486
0.108606
0.105005
0.101706
0.098744
0.0961763
0.0940894
0.0925502
0.0912945
0.0900625
0.0884821
0.0881197
0.0982277
0.0915396
0.0820426
0.0759508
0.0700971
0.0659141
0.0625369
0.0606508
0.0613834
0.0613255
0.0538775
0.0478257
0.0438254
0.0412045
0.0398887
0.0355905
0.0308554
0.0281111
0.0267761
0.0253252
0.0224311
0.0210014
0.0208432
0.0210013
0.0214418
0.021347
0.0225967
0.0242901
0.026666
0.0272929
0.0295734
0.0328779
0.0331814
0.0353769
0.038314
0.0386572
0.0408127
0.042964
0.0428903
0.0435459
0.0442744
0.0452507
0.0470094
0.0473279
0.0490942
0.0497206
0.0508402
0.0517075
0.0523928
0.0534072
0.0537712
0.0547456
0.0549269
0.0557699
0.0558599
0.0565174
0.0565562
0.0569952
0.0569041
0.0572258
0.0572948
0.0570958
0.0572784
0.0569075
0.056902
0.056774
0.0562855
0.0562509
0.055946
0.0553873
0.0552526
0.054882
0.0543166
0.0540802
0.0537123
0.0531694
0.0528332
0.0524998
0.0520206
0.0516167
0.0513501
0.05094
0.0504899
0.0503012
0.0499538
0.0495105
0.049346
0.0490357
0.0486172
0.048464
0.0481482
0.0477878
0.0476121
0.0472705
0.0470302
0.0467893
0.0464345
0.0462644
0.0458978
0.0457239
0.0453797
0.0451535
0.0448382
0.0445857
0.0442744
0.0440207
0.0437131
0.0434372
0.0432484
0.0431026
0.0430157
0.0428765
0.0427985
0.042682
0.0425858
0.0425016
0.0423837
0.0423111
0.0421998
0.0420985
0.0420348
0.0418317
0.0414977
0.0412875
0.041036
0.0407346
0.0404755
0.0402431
0.0399996
0.0397298
0.039502
0.0392896
0.0390778
0.0388547
0.0386473
0.0384664
0.038299
0.0381277
0.0379677
0.0378141
0.0376847
0.0375721
0.0374754
0.0373751
0.0372933
0.0372291
0.0371672
0.0369414
0.0366432
0.0362965
0.0359602
0.0356381
0.0353322
0.0351546
0.0351191
0.0351813
0.0352903
0.0354123
0.0355533
0.035714
0.0358923
0.0360864
0.0362884
0.0364996
0.0367276
0.0369619
0.0371887
0.0373991
0.0375842
0.0377245
0.0378123
0.037773
0.0376876
0.0371701
0.0366739
0.0351633
0.0323409
0.0274825
0.0126951
0.0172046
0.0234814
0.0355267
0.0421584
0.0460869
0.0481841
0.0492235
0.0496241
0.0496325
0.0493866
0.0489664
0.0484211
0.0477818
0.047064
0.0462626
0.0453249
0.0440645
0.0420253
0.0381272
0.0309674
0.0170817
0.00941859
0.00661487
0.0159013
0.0195293
0.0211278
0.0224111
0.0231701
0.0238773
0.0243589
0.0247382
0.0249147
0.0250128
0.0250543
0.0250564
0.0250293
0.0249826
0.0249278
0.0248724
0.0248139
0.0247537
0.0246978
0.024648
0.0246059
0.0245705
0.0245381
0.0245251
0.0245407
0.024559
0.0245867
0.0246225
0.0246731
0.0247315
0.0248002
0.024894
0.0250011
0.0251172
0.0252437
0.0253813
0.0255188
0.0256802
0.0258558
0.0260414
0.0262366
0.0264308
0.0266397
0.0268655
0.0271037
0.0273459
0.0275878
0.0278451
0.0281143
0.0283983
0.0286726
0.0289565
0.0292599
0.0295776
0.0298756
0.0301734
0.0305371
0.0308517
0.0311592
0.0315521
0.0318856
0.032206
0.0326172
0.0329606
0.0333332
0.0337337
0.0340645
0.0345143
0.0348529
0.0353083
0.035689
0.0361088
0.0365254
0.0369402
0.0373789
0.0378035
0.0382651
0.0386798
0.0391881
0.0395681
0.0401263
0.0405079
0.0410831
0.0415391
0.0420299
0.0425957
0.0430277
0.0436516
0.0442083
0.0446578
0.0453493
0.0459379
0.046412
0.0471161
0.0472644
0.047377
0.0476008
0.0478508
0.0482339
0.0490194
0.0498592
0.0505993
0.0513548
0.0523387
0.0531754
0.0538878
0.0549979
0.0559064
0.0565595
0.0577942
0.0587622
0.0594583
0.0608447
0.0618689
0.062775
0.0642665
0.0651088
0.0666051
0.0678616
0.0686253
0.0702767
0.0709798
0.0726775
0.0735159
0.0751334
0.0760977
0.0775946
0.0787774
0.0800773
0.0815415
0.0825779
0.0843624
0.085135
0.0872553
0.0880925
0.0903713
0.0917054
0.0929135
0.0955244
0.0961753
0.0997725
0.101766
0.102726
0.107819
0.109226
0.109984
0.111933
0.113023
0.11579
0.122325
0.12507
0.127797
0.133093
0.138131
0.138458
0.14416
0.149706
0.151701
0.150125
0.154624
0.160419
0.166916
0.158128
0.152423
0.160151
0.164414
0.168434
0.172547
0.152187
0.145096
0.153461
0.156349
0.156218
0.157238
0.158797
0.159514
0.154988
0.131929
0.142628
0.149304
0.145714
0.142627
0.139817
0.138147
0.13712
0.136678
0.136603
0.136835
0.137282
0.137793
0.138224
0.138629
0.139196
0.140475
0.143261
0.148306
0.155594
0.164227
0.171547
0.176871
0.174797
0.171457
0.166369
0.160852
0.155258
0.149794
0.144577
0.139644
0.13502
0.130718
0.126755
0.123155
0.119954
0.117207
0.114984
0.113346
0.112254
0.111902
0.112582
0.116087
0.125018
0.116358
0.106178
0.0993371
0.0928425
0.0882467
0.0847106
0.0831676
0.0846226
0.0842901
0.0755855
0.0684335
0.0636437
0.0603951
0.0586952
0.0531603
0.0469921
0.0431502
0.0410473
0.0385874
0.0341137
0.0314047
0.0303562
0.0294294
0.028439
0.0277842
0.0282192
0.0290329
0.0309216
0.0315644
0.0330395
0.0362267
0.0368222
0.0384331
0.0414297
0.0420674
0.0437886
0.0461154
0.0462451
0.0468131
0.0478074
0.0487271
0.0504891
0.0509653
0.0525858
0.0533732
0.0544376
0.055391
0.0560688
0.0571056
0.0575095
0.0584727
0.0587161
0.059534
0.0596917
0.0603226
0.0604249
0.060846
0.0608171
0.0611112
0.0612147
0.0610509
0.0612132
0.0608941
0.06087
0.0607591
0.060308
0.0602449
0.0599629
0.0594307
0.0592682
0.0589155
0.0583704
0.0581143
0.057756
0.0572289
0.0568822
0.0565482
0.0560816
0.0556765
0.0554011
0.0550041
0.0545614
0.0543582
0.0540256
0.0535948
0.0534167
0.053121
0.0527151
0.0525494
0.0522491
0.0518975
0.0517135
0.0513873
0.051145
0.050908
0.0505647
0.0503859
0.0500357
0.0498525
0.0495228
0.0492932
0.0489866
0.0487347
0.0484303
0.0481767
0.047877
0.0476021
0.0473919
0.0472206
0.0471059
0.046952
0.0468438
0.0467159
0.0465924
0.0464858
0.0463552
0.0462468
0.0461376
0.0460045
0.0459039
0.0457212
0.0454164
0.0451874
0.044944
0.0446611
0.0443942
0.0441512
0.0439147
0.0436556
0.0434156
0.043189
0.0429798
0.0427618
0.0425451
0.0423439
0.0421647
0.0419962
0.0418244
0.0416569
0.0415028
0.0413678
0.0412577
0.0411431
0.0410374
0.0409474
0.0408491
0.0406249
0.0403476
0.0400361
0.0397215
0.0394142
0.0391176
0.0389103
0.0388034
0.0387863
0.0388165
0.0388584
0.0389112
0.0389748
0.0390467
0.0391242
0.0391992
0.039271
0.039345
0.0394119
0.0394579
0.0394712
0.0394406
0.0393459
0.0391761
0.0388713
0.0384706
0.0377453
0.0369103
0.0353614
0.0329654
0.0283361
0.0161917
0.0251387
0.0332982
0.0500489
0.0600081
0.0658394
0.0690408
0.0707023
0.0714215
0.0715512
0.0712919
0.0707603
0.0700241
0.0691176
0.0680448
0.0667679
0.0651689
0.06293
0.0593446
0.0528772
0.041213
0.0227613
0.0134651
0.00831882
0.0174928
0.0204424
0.0218205
0.0229731
0.023796
0.024511
0.0250534
0.0254835
0.0257767
0.0259905
0.026141
0.0262439
0.0263098
0.0263488
0.0263716
0.0263852
0.0263888
0.0263848
0.0263791
0.0263739
0.0263711
0.0263705
0.0263719
0.0263916
0.0264343
0.0264767
0.0265253
0.0265795
0.026644
0.0267137
0.0267955
0.0269029
0.0270222
0.0271461
0.0272792
0.0274188
0.0275596
0.0277279
0.027911
0.0280984
0.0282936
0.0284821
0.028694
0.0289256
0.0291632
0.0293978
0.0296355
0.0298973
0.0301684
0.0304421
0.0307106
0.0309982
0.0313022
0.0316069
0.0319008
0.0322089
0.0325565
0.0328647
0.0331834
0.0335601
0.0338866
0.0342172
0.0346118
0.0349549
0.035328
0.035715
0.0360542
0.0364884
0.0368326
0.037277
0.0376561
0.0380727
0.0384839
0.0388968
0.0393303
0.0397534
0.040208
0.040625
0.0411213
0.0415092
0.0420531
0.0424428
0.043007
0.0434624
0.0439549
0.0445092
0.0449496
0.0455661
0.0461137
0.0465746
0.0472554
0.0478341
0.0483174
0.0489945
0.049189
0.0493655
0.0496561
0.0499637
0.0504057
0.0511947
0.0520283
0.0527754
0.0535459
0.0545226
0.0553596
0.0561018
0.0572017
0.0581039
0.0588029
0.0600227
0.0609848
0.06174
0.063108
0.0641424
0.0651063
0.0665676
0.0674887
0.0689705
0.0702219
0.0710877
0.0726886
0.0735133
0.0751577
0.0761182
0.0776913
0.0787748
0.0802677
0.0815448
0.0829099
0.0844179
0.0856268
0.0873782
0.0884578
0.090466
0.0916952
0.0937972
0.0952967
0.0967993
0.0990795
0.100383
0.103353
0.105164
0.106892
0.110772
0.112021
0.11371
0.114413
0.11538
0.119459
0.124434
0.126472
0.130166
0.136007
0.137447
0.138044
0.146049
0.151177
0.14924
0.147015
0.154477
0.160462
0.165468
0.151163
0.147693
0.159086
0.163664
0.166711
0.16786
0.145361
0.143295
0.154783
0.158337
0.158717
0.159664
0.160666
0.159631
0.15519
0.142838
0.155786
0.159869
0.156165
0.153307
0.15082
0.149473
0.148807
0.148723
0.149087
0.149853
0.150975
0.152393
0.154153
0.156464
0.159623
0.16402
0.169925
0.177276
0.185444
0.193404
0.198915
0.201732
0.199676
0.196196
0.190886
0.185059
0.178994
0.172997
0.16722
0.161737
0.156594
0.151817
0.147431
0.143467
0.139968
0.136997
0.13464
0.133002
0.132214
0.132703
0.135117
0.140594
0.14758
0.137611
0.126953
0.119365
0.112302
0.107277
0.10356
0.102176
0.103935
0.103081
0.093432
0.0854311
0.0799703
0.0761689
0.0740615
0.0675665
0.060341
0.0556528
0.0529277
0.0497183
0.0440454
0.0402335
0.0383922
0.0366084
0.0342251
0.0328195
0.0324476
0.0323163
0.0334525
0.0339449
0.0346851
0.0375062
0.0382746
0.0393982
0.0423096
0.0431824
0.0445589
0.0469568
0.0472852
0.0478107
0.0490074
0.0499066
0.0516676
0.0522859
0.053797
0.0547164
0.0557492
0.0567771
0.0574603
0.0585199
0.0589655
0.0599245
0.0602258
0.0610278
0.0612465
0.0618598
0.0620192
0.0624295
0.0624566
0.0627316
0.062866
0.062737
0.0628849
0.0626128
0.0625765
0.0624814
0.0620662
0.0619814
0.0617203
0.0612147
0.0610307
0.0606948
0.0601703
0.0598995
0.0595506
0.0590397
0.058686
0.0583525
0.0578977
0.057493
0.0572103
0.056825
0.0563896
0.0561739
0.0558535
0.0554337
0.0552433
0.0549592
0.054564
0.0543868
0.0540985
0.0537542
0.0535622
0.0532481
0.0530034
0.0527685
0.0524345
0.0522476
0.0519104
0.0517188
0.0514007
0.0511681
0.0508681
0.0506166
0.0503177
0.050064
0.0497708
0.0494968
0.0492695
0.0490741
0.0489339
0.0487657
0.0486313
0.0484918
0.0483453
0.0482184
0.048077
0.0479391
0.0478224
0.0476752
0.0475405
0.0473723
0.0470975
0.0468575
0.0466214
0.0463581
0.0460899
0.0458409
0.0456116
0.0453664
0.0451214
0.0448866
0.0446813
0.0444724
0.0442542
0.0440417
0.0438554
0.0436928
0.0435185
0.0433466
0.0431792
0.0430307
0.0429139
0.0427949
0.0426781
0.0425756
0.0424563
0.0422433
0.0419918
0.0417174
0.0414338
0.0411528
0.0408784
0.0406646
0.0405205
0.0404525
0.0404316
0.0404233
0.040422
0.0404259
0.040432
0.040437
0.0404332
0.0404183
0.0403954
0.0403566
0.0402887
0.0401796
0.0400171
0.0397825
0.0394633
0.0390164
0.0384543
0.0376572
0.0366969
0.0352254
0.0331647
0.0289434
0.0191161
0.0305533
0.043019
0.0629084
0.0763864
0.0841458
0.0883738
0.0905615
0.0915242
0.0917287
0.0914394
0.0908092
0.0899235
0.0888214
0.0874971
0.0858829
0.0838035
0.0808118
0.0759353
0.0671088
0.0511301
0.0283245
0.0148885
0.00995865
0.0190798
0.0211086
0.0222849
0.0232979
0.0241044
0.0248044
0.0253726
0.0258398
0.0262018
0.0264869
0.0267073
0.0268763
0.0270038
0.0270997
0.0271738
0.0272325
0.0272765
0.027309
0.0273355
0.0273585
0.0273803
0.0274018
0.0274248
0.0274647
0.0275222
0.0275778
0.0276374
0.0277011
0.0277715
0.027846
0.0279343
0.0280482
0.0281724
0.0282978
0.0284316
0.0285688
0.0287097
0.0288805
0.0290657
0.0292507
0.0294421
0.0296239
0.0298363
0.0300697
0.0303031
0.0305288
0.030762
0.0310254
0.0312951
0.0315578
0.0318208
0.0321101
0.0324122
0.0327042
0.0329949
0.0333098
0.0336419
0.0339452
0.0342723
0.0346335
0.0349549
0.0352932
0.035673
0.036016
0.036389
0.0367648
0.0371112
0.0375322
0.0378818
0.0383168
0.0386953
0.0391096
0.039517
0.0399291
0.0403591
0.0407818
0.0412317
0.0416517
0.0421389
0.0425351
0.043068
0.0434665
0.0440224
0.0444793
0.0449748
0.045521
0.0459711
0.0465824
0.0471243
0.0475974
0.04827
0.0488423
0.0493357
0.0499895
0.0502236
0.0504549
0.0507996
0.0511559
0.0516488
0.0524432
0.0532738
0.0540303
0.0548167
0.0557889
0.0566301
0.0574016
0.0584946
0.0593958
0.0601391
0.0613477
0.0623101
0.063121
0.0644746
0.0655229
0.0665401
0.0679791
0.0689733
0.0704444
0.0716994
0.0726596
0.0742247
0.0751615
0.0767693
0.0778423
0.0793892
0.0805851
0.0820877
0.0834597
0.0848945
0.086461
0.0878308
0.0895847
0.0909376
0.0928882
0.0944584
0.0964378
0.0981224
0.0998719
0.101934
0.103762
0.106195
0.107929
0.110195
0.113014
0.114205
0.116488
0.116077
0.117093
0.122044
0.125639
0.127227
0.13173
0.13762
0.136253
0.137436
0.146942
0.151378
0.146411
0.144386
0.153846
0.159602
0.162922
0.145666
0.144982
0.158351
0.162808
0.164799
0.163869
0.143013
0.145551
0.157965
0.161571
0.162268
0.163248
0.164214
0.163203
0.161279
0.157504
0.170262
0.171958
0.168134
0.165392
0.163174
0.16215
0.161876
0.162279
0.163261
0.164798
0.166877
0.169518
0.172827
0.17698
0.18214
0.188391
0.195608
0.203388
0.211033
0.21774
0.221938
0.223511
0.22182
0.218498
0.213345
0.207498
0.201216
0.194874
0.188667
0.182721
0.177112
0.17189
0.167095
0.162769
0.15897
0.155771
0.15328
0.151651
0.151119
0.152203
0.155597
0.161881
0.167094
0.156408
0.145422
0.137157
0.129583
0.124135
0.120203
0.118814
0.120586
0.119159
0.108793
0.100087
0.0940151
0.0896882
0.0871395
0.0798336
0.0717564
0.0663589
0.0630922
0.0592725
0.0526622
0.0479391
0.0454376
0.0430055
0.0394806
0.037307
0.036223
0.0352337
0.0355302
0.0357468
0.035835
0.0381404
0.0389611
0.0396677
0.0423908
0.0434307
0.0445253
0.0469193
0.047421
0.0479108
0.0492548
0.0501516
0.0519046
0.0526476
0.054072
0.0550989
0.0561135
0.0572048
0.0579002
0.0589807
0.0594674
0.0604257
0.0607804
0.0615718
0.0618459
0.0624474
0.0626584
0.0630627
0.0631412
0.0634029
0.0635655
0.0634707
0.0636083
0.0633797
0.0633359
0.0632558
0.0628754
0.0627739
0.0625321
0.0620531
0.0618524
0.0615321
0.0610285
0.0607464
0.0604067
0.0599121
0.0595539
0.0592215
0.0587784
0.0583751
0.0580864
0.0577117
0.0572836
0.057057
0.056747
0.0563377
0.0561364
0.0558618
0.0554768
0.0552891
0.0550109
0.0546732
0.0544739
0.0541698
0.0539229
0.0536894
0.0533636
0.0531693
0.0528432
0.0526441
0.0523358
0.0521007
0.0518064
0.0515553
0.0512613
0.0510077
0.0507202
0.0504473
0.050209
0.0499945
0.0498332
0.0496544
0.0494985
0.0493505
0.0491865
0.0490435
0.0488958
0.0487347
0.0486088
0.0484581
0.0482961
0.0481364
0.0478896
0.0476436
0.0474138
0.0471693
0.0469037
0.0466517
0.0464291
0.046198
0.0459525
0.0457131
0.0455116
0.0453126
0.0450972
0.0448788
0.0446878
0.0445313
0.0443587
0.044187
0.0440125
0.0438555
0.0437347
0.0436152
0.0434935
0.0433843
0.0432524
0.0430496
0.0428203
0.0425757
0.0423195
0.0420626
0.0418092
0.0415966
0.0414322
0.0413298
0.0412719
0.0412274
0.0411878
0.0411499
0.0411096
0.0410635
0.0410043
0.0409287
0.0408376
0.0407237
0.0405754
0.0403807
0.0401277
0.0398002
0.0393863
0.0388575
0.0382138
0.0373934
0.0364045
0.0350277
0.0331995
0.0294965
0.0214423
0.0341109
0.0527702
0.0766332
0.0933753
0.102868
0.107909
0.110426
0.11148
0.111653
0.111274
0.110531
0.109526
0.108305
0.106861
0.105104
0.102791
0.0993941
0.0937308
0.0833285
0.06415
0.035494
0.0159734
0.0118459
0.0206114
0.0216762
0.0226472
0.0235353
0.0242956
0.0249721
0.0255472
0.0260364