/*--------------------------------*- C++ -*----------------------------------*\
| =========                 |                                                 |
| \\      /  F ield         | OpenFOAM: The Open Source CFD Toolbox           |
|  \\    /   O peration     | Version:  v2012                                 |
|   \\  /    A nd           | Website:  www.openfoam.com                      |
|    \\/     M anipulation  |                                                 |
\*---------------------------------------------------------------------------*/
FoamFile
{
    version     2.0;
    format      ascii;
    class       volScalarField;
    location    "853";
    object      nut;
}
// * * * * * * * * * * * * * * * * * * * * * * * * * * * * * * * * * * * * * //

dimensions      [0 2 -1 0 0 0 0];


internalField   nonuniform List<scalar> 
103390
(
1.44544e-07
6.79015e-08
7.53809e-08
4.60765e-08
4.00236e-08
3.1543e-08
2.71433e-08
2.35103e-08
2.08847e-08
1.8838e-08
1.7242e-08
1.59658e-08
1.49352e-08
1.41038e-08
1.343e-08
1.28544e-08
1.2364e-08
1.19609e-08
1.16238e-08
1.13445e-08
1.11135e-08
1.09177e-08
1.07848e-08
1.06886e-08
1.05775e-08
1.04968e-08
1.04394e-08
1.04083e-08
1.03932e-08
1.04075e-08
1.0458e-08
1.04942e-08
1.05235e-08
1.05821e-08
1.06472e-08
1.07363e-08
1.08646e-08
1.09777e-08
1.10632e-08
1.11891e-08
1.13034e-08
1.14977e-08
1.16609e-08
1.17895e-08
1.19389e-08
1.21396e-08
1.2363e-08
1.25334e-08
1.26946e-08
1.29337e-08
1.31876e-08
1.33793e-08
1.35727e-08
1.3858e-08
1.41367e-08
1.42865e-08
1.46112e-08
1.49179e-08
1.50799e-08
1.54344e-08
1.57572e-08
1.59402e-08
1.63392e-08
1.66209e-08
1.68965e-08
1.73031e-08
1.75181e-08
1.79702e-08
1.82185e-08
1.86518e-08
1.89823e-08
1.93545e-08
1.97417e-08
2.01118e-08
2.05245e-08
2.09072e-08
2.13608e-08
2.17202e-08
2.22544e-08
2.25637e-08
2.31627e-08
2.34849e-08
2.40852e-08
2.45365e-08
2.50014e-08
2.56259e-08
2.60191e-08
2.66667e-08
2.7297e-08
2.77047e-08
2.84537e-08
2.91375e-08
2.95847e-08
3.04105e-08
3.09519e-08
3.12598e-08
3.18873e-08
3.25202e-08
3.30502e-08
3.39161e-08
3.49216e-08
3.57596e-08
3.65516e-08
3.77457e-08
3.87864e-08
3.94676e-08
4.08628e-08
4.21049e-08
4.26396e-08
4.42685e-08
4.56488e-08
4.61606e-08
4.80622e-08
4.94302e-08
5.01873e-08
5.25163e-08
5.30775e-08
5.52343e-08
5.72571e-08
5.75425e-08
6.05689e-08
6.05965e-08
6.38528e-08
6.40338e-08
6.72601e-08
6.77277e-08
7.04796e-08
7.16953e-08
7.34583e-08
7.59759e-08
7.6085e-08
8.04778e-08
7.8483e-08
8.47955e-08
8.17073e-08
8.80866e-08
9.05623e-08
8.80284e-08
9.99105e-08
9.13021e-08
1.02787e-07
1.15175e-07
1.00612e-07
1.20748e-07
1.35869e-07
1.11368e-07
1.38461e-07
1.61086e-07
1.29897e-07
1.58987e-07
1.86274e-07
1.9076e-07
1.52478e-07
2.27684e-07
2.70254e-07
2.24059e-07
2.00158e-07
2.65139e-07
3.6564e-07
2.94236e-07
2.90038e-07
2.24832e-07
3.86252e-07
5.08974e-07
3.74048e-07
3.35436e-07
3.22465e-07
2.73009e-07
4.60662e-07
6.60261e-07
4.85677e-07
3.93625e-07
3.43921e-07
3.2645e-07
3.14544e-07
3.26298e-07
2.83614e-07
6.16168e-07
8.06499e-07
5.13287e-07
4.28456e-07
3.57008e-07
3.26883e-07
3.01719e-07
2.87847e-07
2.78023e-07
2.7283e-07
2.70812e-07
2.71921e-07
2.75359e-07
2.81888e-07
2.91393e-07
3.04643e-07
3.23163e-07
3.53511e-07
4.01657e-07
4.6854e-07
6.88443e-07
1.05333e-06
1.04614e-06
7.52616e-07
6.39117e-07
5.15856e-07
4.32223e-07
3.64534e-07
3.11575e-07
2.68653e-07
2.33655e-07
2.04741e-07
1.80678e-07
1.60521e-07
1.43581e-07
1.2936e-07
1.17561e-07
1.08046e-07
1.00685e-07
9.53634e-08
9.13774e-08
8.92515e-08
1.73734e-07
1.7691e-07
6.71612e-08
5.60041e-08
3.68889e-08
3.12019e-08
2.3892e-08
2.05492e-08
1.85211e-08
2.36039e-08
1.40594e-08
4.68269e-09
2.9988e-09
1.33775e-09
6.84837e-10
2.31311e-10
2.6691e-10
6.56619e-10
1.41952e-09
2.37623e-09
5.0537e-09
5.69668e-09
6.01032e-09
7.69535e-09
1.16256e-08
1.27916e-08
1.11498e-08
1.51964e-08
1.75795e-08
1.84546e-08
1.77692e-08
2.39038e-08
2.43234e-08
2.26973e-08
2.86336e-08
2.91493e-08
2.80421e-08
3.32514e-08
3.32807e-08
3.25769e-08
3.65332e-08
3.53424e-08
3.73679e-08
3.90636e-08
3.86353e-08
4.17545e-08
4.13231e-08
4.32685e-08
4.36808e-08
4.47727e-08
4.58372e-08
4.61676e-08
4.74731e-08
4.7387e-08
4.86604e-08
4.8397e-08
4.94685e-08
4.91549e-08
4.99019e-08
4.94421e-08
5.01017e-08
4.9978e-08
4.95999e-08
4.99914e-08
4.92451e-08
4.9412e-08
4.91513e-08
4.83814e-08
4.85412e-08
4.80254e-08
4.72393e-08
4.72599e-08
4.6699e-08
4.59408e-08
4.57877e-08
4.52888e-08
4.45828e-08
4.42615e-08
4.38693e-08
4.32482e-08
4.2797e-08
4.25378e-08
4.19934e-08
4.14527e-08
4.13154e-08
4.08298e-08
4.02763e-08
4.01614e-08
3.9721e-08
3.91995e-08
3.90901e-08
3.86434e-08
3.82061e-08
3.80498e-08
3.75827e-08
3.73297e-08
3.70363e-08
3.65883e-08
3.64444e-08
3.59525e-08
3.58128e-08
3.53557e-08
3.51318e-08
3.47432e-08
3.44685e-08
3.4099e-08
3.38252e-08
3.34563e-08
3.31579e-08
3.28634e-08
3.25217e-08
3.23928e-08
3.19917e-08
3.19082e-08
3.15352e-08
3.13571e-08
3.11538e-08
3.07657e-08
3.07165e-08
3.0411e-08
3.00618e-08
3.00305e-08
2.96997e-08
2.92925e-08
2.92094e-08
2.88631e-08
2.84936e-08
2.83038e-08
2.81099e-08
2.77841e-08
2.74824e-08
2.73373e-08
2.71668e-08
2.68812e-08
2.66389e-08
2.64979e-08
2.63993e-08
2.62232e-08
2.59758e-08
2.58938e-08
2.5784e-08
2.57609e-08
2.56754e-08
2.55502e-08
2.5506e-08
2.55124e-08
2.553e-08
2.56088e-08
2.55921e-08
2.54847e-08
2.54488e-08
2.54813e-08
2.55363e-08
2.56438e-08
2.58456e-08
2.61654e-08
2.64682e-08
2.68608e-08
2.73923e-08
2.79958e-08
2.8696e-08
2.95116e-08
3.04559e-08
3.15705e-08
3.28379e-08
3.42753e-08
3.60011e-08
3.80806e-08
4.05767e-08
4.35945e-08
4.73416e-08
5.19369e-08
5.81719e-08
6.50791e-08
7.81941e-08
8.61695e-08
1.25542e-07
1.06374e-07
1.89084e-07
3.27687e-08
5.78923e-08
6.74985e-09
9.98358e-09
6.36975e-09
4.94343e-09
3.54074e-09
2.61593e-09
1.94228e-09
1.45915e-09
1.10209e-09
8.31049e-10
6.19727e-10
4.53805e-10
3.25722e-10
3.66087e-10
5.74846e-10
1.01442e-09
1.99753e-09
3.61125e-09
7.48605e-09
6.3004e-09
4.14742e-08
2.83888e-08
1.67067e-07
1.24736e-07
1.38701e-07
1.07547e-07
9.43741e-08
8.16392e-08
7.29861e-08
6.60648e-08
6.01483e-08
5.52895e-08
5.12918e-08
4.79565e-08
4.51493e-08
4.27738e-08
4.07704e-08
3.90541e-08
3.75613e-08
3.62818e-08
3.51844e-08
3.42472e-08
3.34493e-08
3.27677e-08
3.22016e-08
3.17587e-08
3.13666e-08
3.1046e-08
3.0796e-08
3.06151e-08
3.05017e-08
3.04557e-08
3.048e-08
3.05315e-08
3.05998e-08
3.0735e-08
3.09064e-08
3.11445e-08
3.1439e-08
3.17436e-08
3.20347e-08
3.24097e-08
3.2796e-08
3.33069e-08
3.37857e-08
3.4235e-08
3.47537e-08
3.53704e-08
3.60201e-08
3.6602e-08
3.72012e-08
3.79669e-08
3.87393e-08
3.94203e-08
4.01476e-08
4.1071e-08
4.19424e-08
4.25969e-08
4.36855e-08
4.46563e-08
4.53652e-08
4.65777e-08
4.76343e-08
4.84231e-08
4.97701e-08
5.0795e-08
5.18668e-08
5.32393e-08
5.41437e-08
5.57067e-08
5.67055e-08
5.82661e-08
5.95158e-08
6.09205e-08
6.23643e-08
6.3779e-08
6.53353e-08
6.68164e-08
6.85208e-08
6.99609e-08
7.19425e-08
7.32385e-08
7.54771e-08
7.68243e-08
7.91317e-08
8.09174e-08
8.2811e-08
8.52076e-08
8.68599e-08
8.94578e-08
9.19071e-08
9.36663e-08
9.66886e-08
9.93848e-08
1.01335e-07
1.04679e-07
1.06127e-07
1.06972e-07
1.08754e-07
1.1061e-07
1.12521e-07
1.16152e-07
1.20264e-07
1.23795e-07
1.2727e-07
1.32258e-07
1.36582e-07
1.39774e-07
1.4568e-07
1.5078e-07
1.53548e-07
1.60488e-07
1.6619e-07
1.69053e-07
1.77204e-07
1.8311e-07
1.87189e-07
1.96857e-07
2.00317e-07
2.09765e-07
2.18221e-07
2.20862e-07
2.3318e-07
2.3503e-07
2.48236e-07
2.50941e-07
2.63959e-07
2.67817e-07
2.79285e-07
2.85794e-07
2.94091e-07
3.04895e-07
3.08016e-07
3.24721e-07
3.21439e-07
3.44217e-07
3.3831e-07
3.62693e-07
3.72398e-07
3.70117e-07
4.08866e-07
3.88576e-07
4.34083e-07
4.70129e-07
4.37952e-07
5.14268e-07
5.51989e-07
4.98907e-07
5.75236e-07
6.25381e-07
5.65487e-07
6.70036e-07
7.46206e-07
7.53497e-07
7.06862e-07
9.08623e-07
9.85583e-07
9.02379e-07
9.00815e-07
1.06935e-06
1.23124e-06
1.11216e-06
1.11894e-06
1.09272e-06
1.3562e-06
1.49173e-06
1.29333e-06
1.2574e-06
1.25478e-06
1.30195e-06
1.49437e-06
1.67747e-06
1.43903e-06
1.32118e-06
1.24626e-06
1.23012e-06
1.24895e-06
1.3288e-06
1.44042e-06
1.45514e-06
1.65368e-06
1.41428e-06
1.29583e-06
1.18499e-06
1.12461e-06
1.08224e-06
1.06065e-06
1.05224e-06
1.05667e-06
1.07246e-06
1.09653e-06
1.12991e-06
1.17536e-06
1.23085e-06
1.29407e-06
1.35786e-06
1.41082e-06
1.4431e-06
1.4592e-06
1.45519e-06
1.49202e-06
1.79931e-06
1.72764e-06
1.58272e-06
1.42401e-06
1.27493e-06
1.14233e-06
1.02446e-06
9.19801e-07
8.26911e-07
7.44557e-07
6.71743e-07
6.0763e-07
5.5156e-07
5.03092e-07
4.62155e-07
4.29342e-07
4.05802e-07
3.88633e-07
3.72104e-07
3.61693e-07
3.86912e-07
4.20073e-07
2.7531e-07
2.18843e-07
1.68769e-07
1.414e-07
1.18057e-07
1.02823e-07
9.21378e-08
9.41258e-08
8.43267e-08
5.9019e-08
4.65533e-08
3.8239e-08
3.38292e-08
3.13493e-08
2.64273e-08
2.18746e-08
2.02182e-08
2.02051e-08
2.21195e-08
2.05151e-08
2.0324e-08
2.26689e-08
2.83703e-08
3.15065e-08
3.00459e-08
3.75669e-08
4.43786e-08
5.01803e-08
5.05191e-08
6.44858e-08
7.2126e-08
7.02049e-08
8.48178e-08
9.25042e-08
9.13041e-08
1.05658e-07
1.11091e-07
1.09523e-07
1.19126e-07
1.18879e-07
1.25098e-07
1.32988e-07
1.32918e-07
1.43786e-07
1.44595e-07
1.51496e-07
1.54713e-07
1.58794e-07
1.63832e-07
1.65492e-07
1.70973e-07
1.71262e-07
1.7634e-07
1.76e-07
1.8014e-07
1.79549e-07
1.82371e-07
1.81081e-07
1.834e-07
1.83296e-07
1.81885e-07
1.83234e-07
1.8053e-07
1.80871e-07
1.79922e-07
1.76856e-07
1.77113e-07
1.75132e-07
1.71876e-07
1.7157e-07
1.69339e-07
1.66159e-07
1.65211e-07
1.6315e-07
1.6018e-07
1.5862e-07
1.56911e-07
1.54325e-07
1.52324e-07
1.51096e-07
1.4888e-07
1.46582e-07
1.45827e-07
1.43913e-07
1.41617e-07
1.40975e-07
1.39266e-07
1.37118e-07
1.36523e-07
1.34803e-07
1.33e-07
1.32255e-07
1.30448e-07
1.29347e-07
1.28162e-07
1.26381e-07
1.25693e-07
1.23805e-07
1.23124e-07
1.21374e-07
1.204e-07
1.18872e-07
1.17742e-07
1.16273e-07
1.15152e-07
1.13706e-07
1.12492e-07
1.11448e-07
1.10419e-07
1.09966e-07
1.08832e-07
1.08494e-07
1.07483e-07
1.06907e-07
1.06322e-07
1.05276e-07
1.0503e-07
1.04253e-07
1.03259e-07
1.03099e-07
1.02083e-07
1.00575e-07
1.00001e-07
9.88559e-08
9.75349e-08
9.66644e-08
9.58695e-08
9.48115e-08
9.37301e-08
9.3049e-08
9.23829e-08
9.15115e-08
9.06892e-08
9.00939e-08
8.96691e-08
8.91437e-08
8.84925e-08
8.81521e-08
8.7816e-08
8.77007e-08
8.75351e-08
8.7359e-08
8.73147e-08
8.7432e-08
8.7639e-08
8.79767e-08
8.78091e-08
8.73782e-08
8.70251e-08
8.68182e-08
8.67396e-08
8.68368e-08
8.74412e-08
8.86054e-08
9.00518e-08
9.18624e-08
9.39791e-08
9.64029e-08
9.91776e-08
1.02349e-07
1.05966e-07
1.10095e-07
1.14751e-07
1.20075e-07
1.26243e-07
1.33366e-07
1.41627e-07
1.5127e-07
1.6265e-07
1.76146e-07
1.92542e-07
2.11988e-07
2.37968e-07
2.62072e-07
3.07834e-07
2.68568e-07
2.73466e-07
5.661e-08
6.25752e-08
3.74646e-08
5.62254e-08
6.62163e-08
7.167e-08
7.34759e-08
7.35128e-08
7.27459e-08
7.16281e-08
7.03834e-08
6.9113e-08
6.78936e-08
6.68191e-08
6.59953e-08
6.56528e-08
6.58724e-08
6.64915e-08
6.65448e-08
6.31421e-08
5.20159e-08
2.8916e-08
4.24701e-08
4.09957e-08
4.73619e-07
7.62397e-07
9.08376e-07
9.23734e-07
8.81924e-07
8.50327e-07
8.10008e-07
7.74624e-07
7.32687e-07
6.93775e-07
6.58265e-07
6.26083e-07
5.9696e-07
5.70638e-07
5.47114e-07
5.26229e-07
5.07426e-07
4.90539e-07
4.75496e-07
4.62133e-07
4.50308e-07
4.39848e-07
4.30391e-07
4.22367e-07
4.15607e-07
4.09622e-07
4.04493e-07
4.00145e-07
3.96699e-07
3.93952e-07
3.91817e-07
3.90428e-07
3.8952e-07
3.89207e-07
3.89411e-07
3.90287e-07
3.91474e-07
3.93179e-07
3.95137e-07
3.97727e-07
4.00665e-07
4.04182e-07
4.07828e-07
4.11584e-07
4.15988e-07
4.20951e-07
4.26083e-07
4.31099e-07
4.36451e-07
4.42849e-07
4.49135e-07
4.55119e-07
4.61634e-07
4.69318e-07
4.76434e-07
4.82552e-07
4.91651e-07
4.99475e-07
5.0601e-07
5.16035e-07
5.24513e-07
5.31596e-07
5.42397e-07
5.50852e-07
5.59873e-07
5.70574e-07
5.7829e-07
5.90397e-07
5.9861e-07
6.10695e-07
6.20493e-07
6.31383e-07
6.42387e-07
6.53179e-07
6.64847e-07
6.75954e-07
6.88416e-07
6.99142e-07
7.13183e-07
7.22813e-07
7.3834e-07
7.48106e-07
7.63931e-07
7.76208e-07
7.89247e-07
8.0501e-07
8.16285e-07
8.33296e-07
8.48843e-07
8.60518e-07
8.7951e-07
8.96e-07
9.08449e-07
9.28522e-07
9.33508e-07
9.36203e-07
9.42567e-07
9.49721e-07
9.59188e-07
9.80108e-07
1.00299e-06
1.02271e-06
1.04221e-06
1.06873e-06
1.0913e-06
1.10892e-06
1.1387e-06
1.16353e-06
1.17879e-06
1.21184e-06
1.23811e-06
1.25368e-06
1.29045e-06
1.31702e-06
1.33755e-06
1.37776e-06
1.39576e-06
1.43469e-06
1.46798e-06
1.48279e-06
1.52807e-06
1.54031e-06
1.58687e-06
1.60237e-06
1.64648e-06
1.66541e-06
1.70417e-06
1.73015e-06
1.76015e-06
1.79627e-06
1.81392e-06
1.86259e-06
1.86672e-06
1.9276e-06
1.9294e-06
1.99413e-06
2.02432e-06
2.03706e-06
2.12255e-06
2.10543e-06
2.21432e-06
2.28382e-06
2.26207e-06
2.4248e-06
2.48377e-06
2.44548e-06
2.50721e-06
2.56988e-06
2.55863e-06
2.74805e-06
2.8605e-06
2.89776e-06
2.95094e-06
3.17425e-06
3.25181e-06
3.26543e-06
3.36226e-06
3.50428e-06
3.61434e-06
3.60224e-06
3.6909e-06
3.81636e-06
3.80935e-06
3.86843e-06
3.85825e-06
3.91842e-06
3.98955e-06
4.15622e-06
3.85189e-06
3.90622e-06
3.92e-06
3.92994e-06
3.89795e-06
3.92531e-06
3.99878e-06
4.12219e-06
4.16087e-06
3.17968e-06
3.68885e-06
3.95589e-06
3.8947e-06
3.81555e-06
3.76079e-06
3.74262e-06
3.74966e-06
3.7807e-06
3.83136e-06
3.88713e-06
3.95223e-06
4.02491e-06
4.09459e-06
4.14424e-06
4.14385e-06
4.05448e-06
3.85166e-06
3.57727e-06
3.34397e-06
3.27088e-06
3.58162e-06
5.32879e-06
5.47307e-06
5.33809e-06
5.0541e-06
4.7422e-06
4.45071e-06
4.18e-06
3.93191e-06
3.70363e-06
3.49351e-06
3.30008e-06
3.12244e-06
2.96014e-06
2.81331e-06
2.68314e-06
2.57327e-06
2.49045e-06
2.41596e-06
2.30767e-06
2.12136e-06
1.83136e-06
2.32929e-06
2.17612e-06
1.88425e-06
1.68316e-06
1.50397e-06
1.36739e-06
1.25241e-06
1.16271e-06
1.13982e-06
1.14452e-06
9.59258e-07
8.10928e-07
7.11821e-07
6.48752e-07
6.11262e-07
5.26841e-07
4.416e-07
3.95752e-07
3.75574e-07
3.58828e-07
3.15835e-07
3.02782e-07
3.11606e-07
3.34123e-07
3.58901e-07
3.61043e-07
4.06102e-07
4.59191e-07
5.20899e-07
5.34746e-07
6.11674e-07
6.90615e-07
6.92773e-07
7.64766e-07
8.3392e-07
8.37584e-07
9.04366e-07
9.52801e-07
9.47927e-07
9.76803e-07
9.88781e-07
1.01625e-06
1.06048e-06
1.06534e-06
1.11412e-06
1.12576e-06
1.15577e-06
1.17546e-06
1.19312e-06
1.21808e-06
1.22631e-06
1.251e-06
1.25405e-06
1.27567e-06
1.27633e-06
1.29325e-06
1.29277e-06
1.30394e-06
1.30028e-06
1.30879e-06
1.30945e-06
1.30401e-06
1.30872e-06
1.29834e-06
1.29864e-06
1.29479e-06
1.282e-06
1.28167e-06
1.27334e-06
1.25906e-06
1.25627e-06
1.24644e-06
1.23205e-06
1.2266e-06
1.21706e-06
1.20323e-06
1.19514e-06
1.18674e-06
1.17448e-06
1.1645e-06
1.15801e-06
1.14741e-06
1.13608e-06
1.13172e-06
1.12261e-06
1.1113e-06
1.10756e-06
1.09939e-06
1.08868e-06
1.08521e-06
1.07689e-06
1.06773e-06
1.06361e-06
1.05468e-06
1.04883e-06
1.04275e-06
1.03364e-06
1.02976e-06
1.02019e-06
1.01629e-06
1.00732e-06
1.00198e-06
9.93928e-07
9.87826e-07
9.79961e-07
9.73859e-07
9.66102e-07
9.59442e-07
9.54675e-07
9.50771e-07
9.48975e-07
9.44933e-07
9.43602e-07
9.40222e-07
9.38177e-07
9.36281e-07
9.32946e-07
9.32108e-07
9.29617e-07
9.26554e-07
9.26361e-07
9.21607e-07
9.13617e-07
9.09958e-07
9.04335e-07
8.9756e-07
8.92604e-07
8.88335e-07
8.83351e-07
8.77992e-07
8.74355e-07
8.71131e-07
8.67534e-07
8.64054e-07
8.6144e-07
8.59914e-07
8.58435e-07
8.56951e-07
8.56486e-07
8.56439e-07
8.575e-07
8.58977e-07
8.61137e-07
8.6368e-07
8.67303e-07
8.71827e-07
8.77047e-07
8.7811e-07
8.77674e-07
8.76889e-07
8.76929e-07
8.78077e-07
8.8048e-07
8.87347e-07
8.99135e-07
9.14503e-07
9.32598e-07
9.52357e-07
9.74305e-07
9.98625e-07
1.02545e-06
1.05496e-06
1.08714e-06
1.12223e-06
1.161e-06
1.20345e-06
1.24941e-06
1.29913e-06
1.35285e-06
1.41047e-06
1.47249e-06
1.53616e-06
1.60727e-06
1.66192e-06
1.71807e-06
1.69159e-06
1.37694e-06
8.57032e-07
1.52918e-07
3.64765e-07
6.76074e-07
1.06077e-06
1.2967e-06
1.42388e-06
1.48586e-06
1.51117e-06
1.51697e-06
1.51179e-06
1.50024e-06
1.4848e-06
1.46719e-06
1.44888e-06
1.43114e-06
1.41509e-06
1.40062e-06
1.38278e-06
1.34306e-06
1.23488e-06
9.8132e-07
5.07095e-07
1.93998e-07
8.99389e-08
1.14397e-06
2.0674e-06
2.54409e-06
2.66297e-06
2.63339e-06
2.5951e-06
2.53024e-06
2.4733e-06
2.38994e-06
2.30858e-06
2.23093e-06
2.15769e-06
2.08885e-06
2.02448e-06
1.96509e-06
1.91075e-06
1.86037e-06
1.81373e-06
1.77098e-06
1.73191e-06
1.6963e-06
1.66381e-06
1.63367e-06
1.6073e-06
1.58471e-06
1.56394e-06
1.54538e-06
1.52881e-06
1.51464e-06
1.50218e-06
1.49152e-06
1.48342e-06
1.47685e-06
1.47172e-06
1.46798e-06
1.46562e-06
1.46413e-06
1.46478e-06
1.46641e-06
1.46927e-06
1.47313e-06
1.47766e-06
1.48357e-06
1.49024e-06
1.49812e-06
1.50669e-06
1.51586e-06
1.52571e-06
1.5363e-06
1.54829e-06
1.56023e-06
1.57242e-06
1.58569e-06
1.60043e-06
1.61438e-06
1.62749e-06
1.64516e-06
1.66044e-06
1.67446e-06
1.69399e-06
1.71057e-06
1.72559e-06
1.74644e-06
1.76343e-06
1.78171e-06
1.80224e-06
1.81822e-06
1.84139e-06
1.85805e-06
1.88134e-06
1.90056e-06
1.92178e-06
1.943e-06
1.96394e-06
1.98631e-06
2.00774e-06
2.03137e-06
2.05214e-06
2.07828e-06
2.09716e-06
2.1258e-06
2.1448e-06
2.17402e-06
2.19705e-06
2.22162e-06
2.2503e-06
2.27182e-06
2.30299e-06
2.33107e-06
2.35332e-06
2.3876e-06
2.41711e-06
2.44051e-06
2.47563e-06
2.47893e-06
2.48058e-06
2.4857e-06
2.49325e-06
2.50869e-06
2.54662e-06
2.58727e-06
2.62311e-06
2.65908e-06
2.70582e-06
2.74588e-06
2.77926e-06
2.83103e-06
2.874e-06
2.90408e-06
2.96068e-06
3.0058e-06
3.03729e-06
3.09993e-06
3.14685e-06
3.18706e-06
3.25401e-06
3.29119e-06
3.35682e-06
3.4128e-06
3.44556e-06
3.51774e-06
3.54734e-06
3.62083e-06
3.65597e-06
3.7254e-06
3.76576e-06
3.82899e-06
3.87869e-06
3.93245e-06
3.99416e-06
4.0358e-06
4.11082e-06
4.14099e-06
4.22843e-06
4.26244e-06
4.35228e-06
4.41083e-06
4.45592e-06
4.5631e-06
4.59154e-06
4.72274e-06
4.81473e-06
4.8546e-06
5.03407e-06
5.11102e-06
5.14686e-06
5.15758e-06
5.23364e-06
5.34838e-06
5.54362e-06
5.66693e-06
5.79448e-06
5.9757e-06
6.05757e-06
6.17264e-06
6.41057e-06
6.57469e-06
6.52161e-06
6.58513e-06
6.83057e-06
7.02902e-06
7.20529e-06
6.68905e-06
6.8029e-06
7.17953e-06
7.35173e-06
7.46201e-06
7.54562e-06
6.54892e-06
6.73808e-06
7.28356e-06
7.45565e-06
7.46293e-06
7.51154e-06
7.56551e-06
7.53694e-06
7.22466e-06
5.61864e-06
7.24332e-06
8.00911e-06
7.96133e-06
7.89747e-06
7.85233e-06
7.86875e-06
7.92041e-06
8.0052e-06
8.09135e-06
8.17895e-06
8.26531e-06
8.3348e-06
8.36083e-06
8.32323e-06
8.19755e-06
7.99252e-06
7.78017e-06
7.71995e-06
8.01253e-06
8.89951e-06
1.03587e-05
1.37641e-05
1.38791e-05
1.36094e-05
1.28844e-05
1.21138e-05
1.13771e-05
1.0701e-05
1.00896e-05
9.53622e-06
9.03459e-06
8.57893e-06
8.16489e-06
7.78917e-06
7.44953e-06
7.14491e-06
6.87548e-06
6.6397e-06
6.4147e-06
6.1646e-06
5.84089e-06
5.62772e-06
7.08857e-06
6.61537e-06
5.96714e-06
5.51999e-06
5.10549e-06
4.7979e-06
4.53348e-06
4.3488e-06
4.36947e-06
4.46959e-06
3.98677e-06
3.56585e-06
3.27373e-06
3.06769e-06
2.93406e-06
2.63117e-06
2.3072e-06
2.1001e-06
1.98154e-06
1.84348e-06
1.61226e-06
1.50867e-06
1.47964e-06
1.45716e-06
1.44356e-06
1.43959e-06
1.4974e-06
1.57078e-06
1.69244e-06
1.73171e-06
1.83358e-06
1.99711e-06
2.02491e-06
2.1202e-06
2.26229e-06
2.28884e-06
2.37995e-06
2.48142e-06
2.48371e-06
2.49662e-06
2.53376e-06
2.57645e-06
2.65548e-06
2.67354e-06
2.74897e-06
2.77993e-06
2.82751e-06
2.8674e-06
2.89641e-06
2.94102e-06
2.95684e-06
2.99853e-06
3.00705e-06
3.04236e-06
3.04731e-06
3.07427e-06
3.07715e-06
3.09466e-06
3.09205e-06
3.10437e-06
3.10733e-06
3.09984e-06
3.10609e-06
3.09111e-06
3.08995e-06
3.08392e-06
3.06388e-06
3.06095e-06
3.04748e-06
3.02404e-06
3.01683e-06
3.00041e-06
2.97629e-06
2.96505e-06
2.94856e-06
2.92503e-06
2.9098e-06
2.89462e-06
2.87364e-06
2.85582e-06
2.84352e-06
2.8255e-06
2.80592e-06
2.79716e-06
2.782e-06
2.76293e-06
2.7555e-06
2.74208e-06
2.7241e-06
2.7173e-06
2.70371e-06
2.68826e-06
2.68061e-06
2.66598e-06
2.65572e-06
2.6454e-06
2.6302e-06
2.62301e-06
2.60728e-06
2.60004e-06
2.58525e-06
2.57584e-06
2.5623e-06
2.5518e-06
2.53851e-06
2.52801e-06
2.515e-06
2.50359e-06
2.49665e-06
2.49266e-06
2.49061e-06
2.48739e-06
2.48598e-06
2.48389e-06
2.48249e-06
2.48145e-06
2.48026e-06
2.47982e-06
2.47793e-06
2.47856e-06
2.47896e-06
2.47282e-06
2.46139e-06
2.45491e-06
2.44679e-06
2.4374e-06
2.42967e-06
2.42309e-06
2.41665e-06
2.40993e-06
2.40491e-06
2.40066e-06
2.3972e-06
2.39438e-06
2.39226e-06
2.39167e-06
2.39185e-06
2.39382e-06
2.39656e-06
2.40019e-06
2.40545e-06
2.41215e-06
2.42125e-06
2.43118e-06
2.44287e-06
2.45655e-06
2.47113e-06
2.47661e-06
2.47931e-06
2.48042e-06
2.48319e-06
2.48794e-06
2.49498e-06
2.51171e-06
2.53909e-06
2.57463e-06
2.61622e-06
2.66113e-06
2.71004e-06
2.76333e-06
2.82119e-06
2.88384e-06
2.95108e-06
3.02315e-06
3.10155e-06
3.18624e-06
3.27654e-06
3.37244e-06
3.47406e-06
3.5807e-06
3.69288e-06
3.80416e-06
3.9213e-06
3.99711e-06
4.03636e-06
3.8888e-06
3.09653e-06
1.80128e-06
3.57264e-07
1.17919e-06
2.76524e-06
4.55291e-06
5.55996e-06
6.13285e-06
6.44044e-06
6.59751e-06
6.66745e-06
6.68448e-06
6.66708e-06
6.62536e-06
6.56524e-06
6.49016e-06
6.40126e-06
6.29639e-06
6.16582e-06
5.97921e-06
5.6635e-06
5.05708e-06
3.9332e-06
1.94383e-06
5.87287e-07
2.03411e-07
2.15794e-06
3.86586e-06
4.79687e-06
5.0445e-06
5.06045e-06
4.99691e-06
4.88217e-06
4.7604e-06
4.62072e-06
4.48438e-06
4.35348e-06
4.22923e-06
4.11175e-06
4.00128e-06
3.89857e-06
3.80351e-06
3.71449e-06
3.63135e-06
3.5543e-06
3.48306e-06
3.41732e-06
3.35655e-06
3.30004e-06
3.25027e-06
3.20666e-06
3.16587e-06
3.12872e-06
3.09485e-06
3.06475e-06
3.03748e-06
3.01386e-06
2.9951e-06
2.97885e-06
2.96469e-06
2.95291e-06
2.94312e-06
2.93496e-06
2.9314e-06
2.9295e-06
2.92896e-06
2.9301e-06
2.93168e-06
2.93723e-06
2.94438e-06
2.95265e-06
2.96122e-06
2.97154e-06
2.98424e-06
2.99774e-06
3.01193e-06
3.02689e-06
3.04363e-06
3.06156e-06
3.08011e-06
3.09886e-06
3.11808e-06
3.14095e-06
3.16164e-06
3.18256e-06
3.20842e-06
3.23121e-06
3.25362e-06
3.28158e-06
3.30589e-06
3.33215e-06
3.36015e-06
3.38399e-06
3.4157e-06
3.44027e-06
3.47269e-06
3.50026e-06
3.53056e-06
3.56063e-06
3.59069e-06
3.62249e-06
3.65329e-06
3.68675e-06
3.71702e-06
3.7536e-06
3.78171e-06
3.82166e-06
3.84996e-06
3.89108e-06
3.92434e-06
3.96002e-06
4.0003e-06
4.03229e-06
4.07655e-06
4.11621e-06
4.14955e-06
4.19794e-06
4.23957e-06
4.27439e-06
4.32244e-06
4.33148e-06
4.34012e-06
4.35374e-06
4.3701e-06
4.39822e-06
4.45323e-06
4.5112e-06
4.56375e-06
4.61718e-06
4.68374e-06
4.74166e-06
4.79289e-06
4.8662e-06
4.92751e-06
4.97559e-06
5.0552e-06
5.11967e-06
5.17113e-06
5.25918e-06
5.32813e-06
5.39202e-06
5.4852e-06
5.54698e-06
5.6395e-06
5.71962e-06
5.7769e-06
5.87505e-06
5.92963e-06
6.02925e-06
6.09172e-06
6.18642e-06
6.25597e-06
6.34579e-06
6.42614e-06
6.50916e-06
6.60164e-06
6.67773e-06
6.78149e-06
6.85418e-06
6.96734e-06
7.05378e-06
7.16296e-06
7.26369e-06
7.35378e-06
7.47493e-06
7.57654e-06
7.69948e-06
7.81955e-06
7.94417e-06
8.08613e-06
8.19301e-06
8.32229e-06
8.22814e-06
8.34148e-06
8.61381e-06
8.74976e-06
8.88234e-06
9.15191e-06
9.43197e-06
9.27069e-06
9.48932e-06
1.00186e-05
1.0183e-05
9.8263e-06
9.90675e-06
1.05049e-05
1.07907e-05
1.08947e-05
9.78716e-06
1.01538e-05
1.10181e-05
1.12667e-05
1.13372e-05
1.12094e-05
9.58447e-06
1.02967e-05
1.14908e-05
1.17837e-05
1.17973e-05
1.18256e-05
1.18001e-05
1.15489e-05
1.10001e-05
9.56678e-06
1.28753e-05
1.38704e-05
1.37633e-05
1.36757e-05
1.3627e-05
1.36788e-05
1.37873e-05
1.39256e-05
1.4064e-05
1.42095e-05
1.43552e-05
1.44778e-05
1.45676e-05
1.46368e-05
1.47201e-05
1.49124e-05
1.53727e-05
1.63192e-05
1.79762e-05
2.05765e-05
2.33207e-05
2.72151e-05
2.74056e-05
2.69528e-05
2.56027e-05
2.4124e-05
2.2647e-05
2.1273e-05
2.00247e-05
1.88984e-05
1.78834e-05
1.69679e-05
1.61415e-05
1.53959e-05
1.47244e-05
1.41224e-05
1.35869e-05
1.31155e-05
1.26988e-05
1.23416e-05
1.20763e-05
1.23011e-05
1.46314e-05
1.35742e-05
1.24696e-05
1.16501e-05
1.09153e-05
1.03669e-05
9.90932e-06
9.63125e-06
9.76561e-06
9.96221e-06
9.0881e-06
8.33252e-06
7.79475e-06
7.39788e-06
7.12673e-06
6.53622e-06
5.89049e-06
5.43975e-06
5.14811e-06
4.78459e-06
4.19725e-06
3.87361e-06
3.70604e-06
3.51553e-06
3.27281e-06
3.18621e-06
3.17033e-06
3.15953e-06
3.26507e-06
3.31803e-06
3.37951e-06
3.59121e-06
3.6567e-06
3.73829e-06
3.9421e-06
4.00683e-06
4.09858e-06
4.25594e-06
4.27759e-06
4.2862e-06
4.36083e-06
4.4179e-06
4.5312e-06
4.57075e-06
4.66687e-06
4.72424e-06
4.78792e-06
4.85237e-06
4.89306e-06
4.95898e-06
4.98453e-06
5.0435e-06
5.06042e-06
5.109e-06
5.12139e-06
5.15776e-06
5.167e-06
5.19038e-06
5.19186e-06
5.207e-06
5.21381e-06
5.20621e-06
5.21312e-06
5.19593e-06
5.19262e-06
5.18501e-06
5.15962e-06
5.15278e-06
5.135e-06
5.1038e-06
5.09082e-06
5.06842e-06
5.03566e-06
5.01766e-06
4.9945e-06
4.9621e-06
4.93925e-06
4.91715e-06
4.88804e-06
4.86237e-06
4.84374e-06
4.8189e-06
4.79156e-06
4.77764e-06
4.7571e-06
4.73103e-06
4.71921e-06
4.70123e-06
4.67678e-06
4.66604e-06
4.64796e-06
4.62685e-06
4.6153e-06
4.59584e-06
4.58122e-06
4.56693e-06
4.54647e-06
4.53567e-06
4.51485e-06
4.504e-06
4.48439e-06
4.47105e-06
4.45278e-06
4.43829e-06
4.42032e-06
4.40584e-06
4.38846e-06
4.37286e-06
4.3619e-06
4.35492e-06
4.35035e-06
4.34554e-06
4.34187e-06
4.339e-06
4.33592e-06
4.33356e-06
4.33243e-06
4.33014e-06
4.32871e-06
4.32922e-06
4.32829e-06
4.3226e-06
4.31111e-06
4.30237e-06
4.29331e-06
4.28416e-06
4.27526e-06
4.26745e-06
4.26158e-06
4.25647e-06
4.25186e-06
4.24789e-06
4.24683e-06
4.24783e-06
4.24883e-06
4.25093e-06
4.25487e-06
4.26365e-06
4.2727e-06
4.28317e-06
4.29528e-06
4.30981e-06
4.32933e-06
4.35081e-06
4.37449e-06
4.40146e-06
4.4291e-06
4.44724e-06
4.46409e-06
4.48117e-06
4.50041e-06
4.52281e-06
4.54902e-06
4.58666e-06
4.63657e-06
4.69842e-06
4.77059e-06
4.84878e-06
4.93334e-06
5.02479e-06
5.12343e-06
5.22963e-06
5.34311e-06
5.4641e-06
5.59474e-06
5.73536e-06
5.88508e-06
6.04367e-06
6.21107e-06
6.38594e-06
6.56773e-06
6.74548e-06
6.91614e-06
7.01417e-06
6.98667e-06
6.65428e-06
5.25606e-06
3.00126e-06
6.82992e-07
1.90357e-06
4.77712e-06
8.97487e-06
1.16903e-05
1.33413e-05
1.43138e-05
1.48769e-05
1.51875e-05
1.53361e-05
1.53724e-05
1.53239e-05
1.52043e-05
1.50175e-05
1.47569e-05
1.4402e-05
1.39074e-05
1.31716e-05
1.19982e-05
1.00361e-05
6.89316e-06
2.87881e-06
9.95881e-07
3.96621e-07
3.53842e-06
6.03838e-06
7.49262e-06
7.91715e-06
8.02372e-06
7.95001e-06
7.78524e-06
7.58928e-06
7.37614e-06
7.16613e-06
6.96353e-06
6.77071e-06
6.58816e-06
6.41629e-06
6.25586e-06
6.10645e-06
5.9661e-06
5.83458e-06
5.71208e-06
5.59818e-06
5.49246e-06
5.39427e-06
5.30317e-06
5.22245e-06
5.1502e-06
5.08219e-06
5.01958e-06
4.96192e-06
4.90957e-06
4.86162e-06
4.81994e-06
4.78571e-06
4.75502e-06
4.72703e-06
4.70265e-06
4.68097e-06
4.66253e-06
4.65133e-06
4.64266e-06
4.63517e-06
4.62995e-06
4.62522e-06
4.62807e-06
4.63327e-06
4.63902e-06
4.64461e-06
4.6539e-06
4.6678e-06
4.68213e-06
4.69587e-06
4.7121e-06
4.73217e-06
4.7531e-06
4.7732e-06
4.79565e-06
4.82032e-06
4.8461e-06
4.87125e-06
4.89877e-06
4.92894e-06
4.95714e-06
4.98684e-06
5.02023e-06
5.05152e-06
5.08526e-06
5.11967e-06
5.15155e-06
5.19065e-06
5.2233e-06
5.26406e-06
5.2999e-06
5.33908e-06
5.37775e-06
5.41694e-06
5.45802e-06
5.49831e-06
5.54149e-06
5.58162e-06
5.62836e-06
5.66649e-06
5.71742e-06
5.75592e-06
5.80882e-06
5.85288e-06
5.9003e-06
5.9522e-06
5.99579e-06
6.05336e-06
6.10492e-06
6.15068e-06
6.21328e-06
6.26741e-06
6.31491e-06
6.37521e-06
6.39369e-06
6.41375e-06
6.44042e-06
6.46988e-06
6.51483e-06
6.58813e-06
6.66425e-06
6.73518e-06
6.80795e-06
6.89512e-06
6.97243e-06
7.04419e-06
7.13977e-06
7.22087e-06
7.29049e-06
7.39368e-06
7.47918e-06
7.5548e-06
7.66876e-06
7.76223e-06
7.8538e-06
7.9739e-06
8.06548e-06
8.18581e-06
8.29263e-06
8.38066e-06
8.50542e-06
8.59208e-06
8.7187e-06
8.81566e-06
8.93738e-06
9.04359e-06
9.16358e-06
9.28179e-06
9.40042e-06
9.5302e-06
9.65093e-06
9.78877e-06
9.91856e-06
1.00609e-05
1.02166e-05
1.0344e-05
1.05021e-05
1.06472e-05
1.0782e-05
1.09748e-05
1.10657e-05
1.12245e-05
1.14403e-05
1.15001e-05
1.16509e-05
1.18712e-05
1.16247e-05
1.18028e-05
1.22376e-05
1.22619e-05
1.24124e-05
1.28595e-05
1.31912e-05
1.27274e-05
1.31171e-05
1.39622e-05
1.40613e-05
1.33416e-05
1.35216e-05
1.45216e-05
1.48526e-05
1.47977e-05
1.31225e-05
1.39417e-05
1.53194e-05
1.55959e-05
1.5565e-05
1.52041e-05
1.32067e-05
1.48028e-05
1.66198e-05
1.69715e-05
1.69662e-05
1.69638e-05
1.6879e-05
1.65284e-05
1.6139e-05
1.56816e-05
2.07315e-05
2.17402e-05
2.1544e-05
2.14072e-05
2.13467e-05
2.14441e-05
2.16345e-05
2.18566e-05
2.21154e-05
2.24157e-05
2.27567e-05
2.31319e-05
2.35716e-05
2.41398e-05
2.49364e-05
2.61155e-05
2.78693e-05
3.04028e-05
3.38257e-05
3.81094e-05
4.16583e-05
4.52498e-05
4.56809e-05
4.51066e-05
4.3145e-05
4.08532e-05
3.8432e-05
3.6109e-05
3.39588e-05
3.20025e-05
3.02341e-05
2.8639e-05
2.72012e-05
2.59069e-05
2.47449e-05
2.37077e-05
2.2793e-05
2.20066e-05
2.13661e-05
2.09353e-05
2.08668e-05
2.16445e-05
2.45549e-05
2.28192e-05
2.11665e-05
1.98485e-05
1.86916e-05
1.78175e-05
1.7107e-05
1.67081e-05
1.69669e-05
1.72177e-05
1.58759e-05
1.47257e-05
1.38872e-05
1.32511e-05
1.28025e-05
1.18779e-05
1.08625e-05
1.01228e-05
9.61572e-06
8.97558e-06
7.93661e-06
7.30213e-06
6.92885e-06
6.4981e-06
5.85968e-06
5.58502e-06
5.41662e-06
5.21535e-06
5.19914e-06
5.22898e-06
5.1934e-06
5.39628e-06
5.49322e-06
5.53356e-06
5.77874e-06
5.88843e-06
5.96579e-06
6.17513e-06
6.22549e-06
6.23108e-06
6.35001e-06
6.42319e-06
6.57163e-06
6.63947e-06
6.75406e-06
6.84328e-06
6.92365e-06
7.01686e-06
7.07062e-06
7.16025e-06
7.19778e-06
7.27535e-06
7.30334e-06
7.36584e-06
7.3884e-06
7.43445e-06
7.45268e-06
7.48214e-06
7.49046e-06
7.50811e-06
7.52025e-06
7.51439e-06
7.52163e-06
7.50427e-06
7.49858e-06
7.48996e-06
7.46091e-06
7.4493e-06
7.42786e-06
7.39012e-06
7.37042e-06
7.34246e-06
7.30192e-06
7.27645e-06
7.24672e-06
7.20602e-06
7.17515e-06
7.14585e-06
7.1089e-06
7.07525e-06
7.04971e-06
7.01829e-06
6.98337e-06
6.96354e-06
6.93785e-06
6.90516e-06
6.88825e-06
6.86595e-06
6.83543e-06
6.82008e-06
6.79782e-06
6.7713e-06
6.75536e-06
6.73145e-06
6.7123e-06
6.694e-06
6.66863e-06
6.65381e-06
6.6284e-06
6.61359e-06
6.58962e-06
6.57229e-06
6.54962e-06
6.53124e-06
6.50896e-06
6.49063e-06
6.46934e-06
6.4498e-06
6.43443e-06
6.42342e-06
6.41527e-06
6.4083e-06
6.40141e-06
6.39738e-06
6.39198e-06
6.38759e-06
6.38653e-06
6.38165e-06
6.38023e-06
6.38135e-06
6.37825e-06
6.37392e-06
6.36511e-06
6.35506e-06