/*--------------------------------*- C++ -*----------------------------------*\
| =========                 |                                                 |
| \\      /  F ield         | OpenFOAM: The Open Source CFD Toolbox           |
|  \\    /   O peration     | Version:  v2012                                 |
|   \\  /    A nd           | Website:  www.openfoam.com                      |
|    \\/     M anipulation  |                                                 |
\*---------------------------------------------------------------------------*/
FoamFile
{
    version     2.0;
    format      ascii;
    class       volScalarField;
    location    "853";
    object      omega;
}
// * * * * * * * * * * * * * * * * * * * * * * * * * * * * * * * * * * * * * //

dimensions      [0 0 -1 0 0 0 0];


internalField   nonuniform List<scalar> 
103390
(
619492
426218
404790
408751
416742
424808
432828
440589
448102
455341
462302
468982
475386
481519
487379
492957
498269
503334
508155
512738
517089
521221
525154
528870
532365
535678
538818
541787
544593
547255
549770
552114
554318
556408
558379
560249
562017
563649
565170
566620
567991
569304
570500
571596
572651
573672
574617
575457
576254
577048
577776
578407
579017
579639
580175
580626
581141
581584
581929
582352
582704
582972
583310
583567
583803
584055
584228
584445
584593
584763
584899
585012
585129
585214
585301
585366
585430
585466
585524
585519
585567
585542
585573
585557
585529
585539
585466
585468
585448
585340
585345
585307
585181
585182
585127
584976
584956
584921
584799
584770
584775
584692
584617
584655
584609
584479
584552
584540
584357
584465
584466
584262
584397
584362
584216
584364
584162
584269
584334
584063
584266
584018
584177
583985
584076
583948
583934
583904
583744
583850
583489
583767
583172
583616
582853
583326
583234
582446
583475
581799
582920
583772
581019
583262
584084
580194
583330
584933
579896
582618
585220
583342
578670
585876
589253
581797
578483
584866
593188
583805
580258
574266
588854
598855
582408
575683
572382
567272
585514
601977
579598
566410
559384
554848
550531
547665
542709
573454
586756
549689
535188
524905
517605
510411
503691
496961
490243
483430
476508
469416
462189
454807
447305
439754
432502
425945
420556
429905
462308
463422
434576
430608
432950
437533
442656
448173
453844
459575
465284
470918
476437
481818
487043
492110
497021
501784
506415
511313
519314
540670
544417
529384
530444
532507
535285
537775
540730
546678
556911
556887
551323
552541
554484
558003
564594
565788
562681
563792
566775
571487
571887
569984
571435
575703
576818
574681
576634
579277
579297
578371
581358
582256
580701
583017
583882
582838
584710
585218
584621
585956
585844
586352
586963
586748
587504
587476
587927
588065
588307
588548
588635
588915
588908
589187
589127
589376
589290
589490
589384
589547
589586
589421
589580
589426
589460
589477
589260
589332
589283
589052
589088
589015
588797
588768
588691
588497
588397
588323
588153
587993
587923
587770
587566
587495
587347
587120
587030
586875
586650
586547
586376
586160
586035
585833
585657
585491
585266
585106
584880
584698
584477
584259
584039
583799
583563
583312
583055
582784
582521
582205
581939
581593
581303
580942
580591
580241
579798
579436
579007
578493
578073
577565
576971
576457
575868
575188
574530
573860
573100
572272
571452
570598
569644
568615
567562
566475
565296
564000
562657
561239
559759
558174
556457
554644
552737
550716
548589
546323
543886
541307
538591
535718
532679
529477
526102
522510
518707
514712
510503
506067
501398
496490
491341
485931
480242
474286
468067
461579
454817
447790
440497
432984
425198
417468
409662
406293
427248
621321
612138
421736
389491
386091
385285
385117
385024
384967
384925
384893
384869
384849
384833
384820
384810
384809
384817
384839
384900
385065
385871
389356
420740
611553
92758.4
66501.2
61781.1
62515.4
64047.7
65611.1
67191.4
68703.4
70173.4
71593
72963.3
74284
75555.9
76780.5
77954.4
79075.6
80150
81178.9
82162.2
83100.6
83995.2
84848.1
85664.6
86435.1
87162.6
87855.3
88513.8
89138.5
89730.6
90297.6
90832
91327.7
91798.2
92245.5
92668.1
93071
93452.9
93802.8
94131.9
94447.1
94745.2
95034.6
95293.6
95534.7
95766.5
95994.5
96203.1
96390
96567.8
96748.2
96912
97055.1
97194.4
97338.8
97462.5
97567.3
97690.3
97795.2
97877.6
97981.9
98068.1
98135
98222.3
98287.9
98350.8
98419.4
98466.6
98530.2
98572.3
98626.3
98667.9
98708.3
98748.1
98782.4
98817.1
98847.6
98879.1
98902.9
98935.6
98949.6
98982.8
98992.9
99023.1
99038.8
99053.3
99079.8
99082.8
99109.2
99129.9
99126.9
99157.6
99176.7
99171.5
99204.9
99222.8
99213.8
99244.1
99268.9
99270.5
99298.5
99337.4
99353
99369.4
99422
99451.5
99453.3
99521.1
99564.2
99550.4
99634.7
99684.9
99666.4
99765.9
99808.3
99810.8
99926.8
99908.6
100015
100100
100062
100215
100169
100325
100294
100437
100425
100534
100564
100610
100709
100659
100856
100681
100986
100727
101077
101101
100909
101480
100873
101602
102035
101097
102375
102775
101393
103165
103737
102013
103776
104812
104327
102809
106900
107478
105005
104271
108132
110321
106942
106205
104780
112574
113122
107747
105958
105415
104911
114404
114767
107481
103891
101956
100907
100162
100614
101726
116598
108717
99241.5
95744.3
93104.3
91207.2
89448.1
87881.9
86399.3
84993.1
83625.1
82383.8
81227.1
80165.6
79220
78477.9
78125.1
78509
80098.2
83855.5
90878.6
97344.5
75710.6
72327
71640.4
72135.3
72909.5
73711.5
74539.2
75373
76213.1
77055.5
77898.3
78740.1
79580.8
80422.6
81271.5
82138.3
83035.5
84002.5
85254.9
88069.8
95615.3
89938.9
86703.9
86847.1
87083.6
87556.8
87985.7
88600.8
89860.6
91756.5
91010
90146.9
90475.3
90937.4
91655.9
92923.4
93239
92835.6
93148.4
93819
94858.1
95167
94832.1
95211
96176.1
96619.3
96117.2
96630.2
97252.4
97342.6
97129.2
97900.2
98158
97785.6
98423.7
98653.8
98412.3
98949.1
99090.1
98950.3
99373
99334.7
99504.7
99698.9
99650.5
99914.9
99908
100070
100123
100216
100310
100346
100455
100458
100564
100549
100642
100619
100690
100657
100716
100724
100681
100730
100675
100690
100688
100619
100641
100616
100544
100554
100522
100453
100444
100413
100351
100322
100295
100241
100195
100174
100126
100068
100050
100005
99941.6
99920.8
99876
99813.6
99790.1
99741.6
99683.7
99653.8
99598
99554.2
99511.3
99450.8
99413.9
99351.5
99310.1
99249.9
99197.6
99139.7
99081
99020.2
98958.9
98893.6
98826.5
98761.1
98680.4
98618.8
98529.5
98463.4
98372.5
98288.5
98205.9
98095.1
98013.2
97910.2
97785.1
97690.4
97572.1
97429.8
97314.8
97178.8
97019.2
96869.8
96718.6
96546
96355.1
96172.4
95981.9
95769.1
95535.9
95303.2
95062.9
94806.9
94516.6
94222.5
93911.5
93589.7
93249
92874.5
92479.7
92068.6
91634.7
91181
90704.1
90186.3
89635.7
89062.7
88458.4
87821.3
87150.8
86448.3
85704.2
84915
84092.8
83230.9
82327.2
81380.8
80391.1
79358.6
78282.5
77155.8
75981.6
74764.7
73504
72199.4
70852.7
69462.8
68042.3
66566.4
65138.6
63768.6
63263
67848.6
93647.6
134481
65756.3
58332.3
57493.8
57129.1
57081.1
57089.9
57120.5
57147.6
57167.9
57180
57184.2
57180.1
57165.6
57137
57090.2
57017.8
56915.5
56805.3
56753.2
57142.2
58302.4
65677.4
130394
27023.6
19463.3
17875.5
18227.8
18800.9
19447
20079.4
20673.8
21239.2
21780.5
22301.2
22803
23287.4
23755.3
24205.2
24637.5
25055.5
25458.4
25846.1
26218.8
26576.8
26920.9
27252.4
27565.1
27863.6
28150.4
28424.8
28687
28937.6
29178.8
29406.7
29619.5
29823.9
30020.9
30208.1
30388.7
30559.5
30715.1
30864.5
31009.6
31148.2
31284.9
31404.3
31519
31631.2
31744.1
31845.8
31938.2
32028.4
32123.1
32207.5
32282.7
32358.3
32439.1
32507.1
32566.2
32640.6
32701.8
32751.7
32819.4
32873.7
32918
32979.2
33024.5
33071
33122.8
33159.1
33212
33246.7
33295.3
33332.7
33372.8
33412
33449
33487.2
33523
33561.2
33593.1
33634.9
33660.1
33705.1
33728.6
33772.7
33803.1
33834.9
33876.7
33899.7
33943.8
33982.1
34003.2
34052.4
34091.4
34112.8
34165.6
34193.7
34204.2
34242.3
34276.5
34299.6
34348.9
34405.7
34446.2
34486.5
34554.8
34605.2
34634.8
34714.8
34774
34792
34884
34947.4
34962.4
35065.5
35123.5
35154.6
35268.1
35283.6
35392.3
35477.1
35480
35616.9
35610
35750.9
35753.5
35885
35899
36005.8
36047
36111.8
36197.1
36197.4
36344.9
36264.9
36481.4
36353.8
36611.9
36633.8
36577.3
36931.9
36624.6
37154.8
37370.1
36948.3
37807.6
37951.3
37342.8
38352.5
38498
37781.5
38944.8
39413.2
39117.1
38717.4
40998.8
40859.1
39799
39850.8
42037.6
42452.1
40884.1
40737
40818
44553.2
43402.8
41160.3
40625.2
40711.4
41398.4
45517.2
43353.1
40186.1
39003.2
38380
38118.6
38120.9
38970.1
40627.6
45270.9
38029.2
35236.7
34144.3
33266.2
32533.2
31868.6
31266.6
30714.4
30203.9
29797.7
29448.5
29172.7
28985.8
28910.7
29006.7
29362.6
30074.5
31164.7
32422.2
32950.9
31674.6
23063.9
22631.5
22587.3
23028.5
23495.7
23946.5
24364.7
24753.5
25118.7
25465.9
25799.4
26123.9
26444
26766.1
27099.9
27460.4
27869
28349.4
29020.8
30309.4
32461.2
28666.8
28184.3
28114.4
28162.7
28212.9
28295.1
28467.8
28859.2
29283.6
28729.2
28426.7
28450.3
28564.4
28784.8
29216.1
29300.3
29189.1
29343
29651.8
30141.9
30451
30417.1
30666.4
31188.8
31663.7
31481.5
31820.2
32254.4
32476.8
32407.1
32901.8
33205.7
33033.4
33446.6
33688.7
33581.7
33937.4
34097.2
34023.5
34297.5
34306.7
34426.3
34589.5
34574.2
34775.8
34791.5
34914
34969.4
35040.4
35123.8
35153.9
35243.2
35249.9
35332.7
35327.7
35396.8
35386.4
35436.6
35415.9
35457.5
35462.5
35435.4
35466.3
35426.1
35435
35429.2
35379
35390.5
35367.7
35314.2
35316.7
35288.7
35236.7
35226.3
35199.3
35151.2
35127.6
35104.4
35062.3
35027.7
35009.9
34973
34930.1
34917.2
34883.6
34837.8
34824
34791.5
34746.8
34732
34697.4
34657.2
34638.2
34599
34570.7
34542.3
34500.5
34478.7
34435.1
34411.1
34369.5
34338
34299
34263.1
34223
34185.7
34143.7
34102.5
34063.8
34017
33984.7
33932.9
33899.1
33848.3
33803.2
33760.4
33698.9
33657.8
33605
33536.2
33490.4
33429.2
33348.6
33289.6
33219.6
33133.8
33056.3
32980.6
32894.5
32796.3
32706
32614.4
32512.7
32398.2
32286.7
32174.1
32058.1
31921.8
31785.6
31642.6
31498.3
31348.3
31181.9
31007.3
30827.4
30639.1
30444.1
30238.1
30012.9
29773.1
29524.6
29265.3
28994.1
28712.9
28424
28124
27805.8
27476.1
27133.4
26776.7
26405.8
26020.3
25620.2
25206.6
24776.2
24328.2
23864.4
23384.2
22886.8
22370.8
21834.1
21276.6
20695.5
20112.9
19641.1
19434.8
21715.4
30327.3
60154
21031.8
16623.2
16167.4
16010.8
16020.8
16046.1
16071.3
16086.2
16092.2
16090.5
16082.8
16069.7
16051.1
16025.8
15991.9
15946.8
15888.1
15824.3
15781.8
15968.1
16615.5
22324.7
56836.9
12527.4
8733.3
7783.91
7929.98
8201.85
8547.71
8891.04
9217.12
9519.98
9807.11
10081.2
10344.1
10596.8
10840.4
11074.6
11300.5
11519.7
11731.7
11936.6
12134.6
12326
12510.9
12689.3
12858
13021.5
13179.8
13332.2
13478.8
13620.4
13757.2
13886.4
14008.6
14127.5
14242.8
14353.8
14462.8
14565.1
14658.7
14750.7
14841.4
14928.9
15015.2
15090.3
15164.7
15238.9
15314
15381.2
15443.5
15506
15572.4
15631
15684.4
15739.9
15799.2
15848.7
15893.6
15951.3
15997.5
16037.2
16091.7
16134.6
16171.4
16222.4
16260.2
16300.4
16344.7
16376.8
16423.7
16454.9
16499.2
16533.5
16571.1
16607.8
16643
16679.7
16714.4
16751.6
16783.4
16824.2
16850.6
16894.6
16919.8
16963.6
16995
17028.4
17069.9
17095.8
17140
17178.5
17203.4
17252.1
17291.5
17317.1
17368.5
17387.2
17394.4
17420.5
17444.7
17466
17514.9
17569.2
17610.7
17652.2
17715.8
17764.4
17797.3
17869.7
17924.1
17947.6
18028.8
18085.5
18106.9
18196.1
18248.8
18283.1
18378.1
18400.2
18492.3
18562.6
18575.4
18684.3
18689
18800.2
18812.2
18914.8
18934.3
19018.9
19056.5
19111.7
19177.7
19189.8
19294.5
19254.8
19403.5
19336.6
19518.1
19532.2
19522.9
19746.3
19583.8
19956.5
20065.6
19871
20452
20491.3
20216.6
20817.6
20813
20515.1
21291.3
21510
21320.1
21326.7
22637.1
22336.7
21861.2
22136.6
23387.9
23262.4
22455.8
22524.6
22965.2
24755.1
23443.2
22418.9
22317.2
22573.1
23309.8
24939.2
22720.7
21216.4
20838.8
20656.2
20642.5
20811.5
21454
22352
23193.2
18562
17705.8
17312.3
16970.7
16639.6
16334.6
16050.3
15791.1
15587.2
15426.2
15297.5
15215.6
15182.7
15206.2
15297.5
15455.8
15643.8
15750.8
15554.3
14717.6
13474.3
10820.4
10651.1
10648.4
10902.8
11184.8
11472.2
11743.2
11995.4
12230.3
12450.6
12659.6
12860.5
13057.3
13255.1
13460.8
13684.8
13938.9
14232.1
14609.6
15148.8
15658.2
13857.2
13837.4
13749.1
13759.2
13729.8
13738.1
13794.5
13946.6
14048.2
13720.6
13514.1
13412.1
13387
13431.8
13595.1
13526.5
13373.6
13385.6
13512.8
13737.7
13912.8
13920.5
14086.7
14412.5
14853.4
14828.6
15090.7
15463.7
15755.9
15760.7
16128.7
16462.7
16386.6
16685.6
16935.9
16889.5
17148.5
17314.3
17268.7
17441.9
17473.8
17563.2
17702.8
17702.4
17859.1
17885.6
17980.6
18032.9
18088.9
18159.4
18185.4
18257.5
18266
18331.1
18330.9
18384
18379.4
18417.3
18403.4
18434
18438.6
18418.9
18440.6
18410.1
18415.2
18409.7
18370.7
18376.9
18358.1
18315.6
18314.8
18291.5
18249.8
18239.2
18216.5
18177.4
18157
18137
18102.7
18074.2
18058.7
18028.7
17994.1
17982.9
17956
17919.6
17908.2
17882.7
17847.1
17835.3
17808.2
17776.5
17761.6
17731
17709
17687.1
17654.3
17637.9
17603.7
17585.9
17553.3
17529.6
17499.2
17472.2
17441.1
17413.2
17381
17350
17322.6
17291.8
17271.2
17237.5
17215.9
17183.5
17154.5
17127.7
17088.4
17062.2
17030.3
16985
16956.6
16916.6
16859.5
16818.4
16771.4
16712.4
16658.9
16608.2
16551.7
16485.8
16425.6
16366.2
16301.5
16227.5
16155.1
16083.5
16012.3
15927.6
15842.5
15754.6
15666.4
15576.2
15477.7
15373.2
15266.2
15155
15040.6
14916.1
14779.6
14633.2
14481.4
14324.4
14161.3
13996.3
13831.4
13664.6
13489
13307.2
13119.1
12924.2
12722.4
12513.3
12296.7
12073.4
11841.7
11600.5
11350
11089.6
10818.5
10535.5
10239.3
9929.4
9611.01
9299.26
9085.89
9042.19
10444.2
15257.2
35534.3
14590.2
8491.63
7803.08
7582.5
7514.76
7481.5
7460.91
7442.74
7425.03
7407.53
7390.75
7375.38
7362.19
7352.3
7347.48
7350.99
7369.61
7420.38
7539.37
7873.34
8787.69
16037.4
32519.7
7368.74
5051.75
4404.49
4442.68
4578.67
4778.43
4989.36
5196.65
5391.97
5577.76
5755
5924.58
6087.26
6243.67
6394.07
6539.32
6680.29
6816.66
6948.7
7076.54
7200.35
7320.15
7435.69
7545.56
7653.04
7757.44
7858.41
7955.97
8050.61
8142.1
8228.72
8311.55
8392.87
8472.09
8548.78
8623.92
8694.76
8760.39
8826.03
8891
8954.15
9015.59
9069.67
9124.33
9179.46
9234.69
9284
9330.73
9378.5
9428.6
9472.61
9513.81
9557.18
9602.79
9640.85
9676.94
9722.25
9758.13
9790.63
9834.14
9868
9898.51
9939.48
9970.26
10003.5
10039.3
10066.3
10104.6
10130.9
10167.4
10196.1
10227.5
10258.1
10287.8
10318.6
10347.8
10379.1
10406.1
10440.1
10463
10499.7
10521.6
10558.3
10585
10613.6
10648.1
10670.8
10708
10740
10762.1
10802.8
10835.5
10858.1
10900.3
10911.8
10916.1
10933.3
10949.6
10966.7
11007.6
11052.3
11087.2
11122.5
11174.6
11214.5
11243.3
11302
11345.8
11367.4
11432.6
11477.7
11498.1
11569.2
11611.7
11642.2
11716.3
11737.7
11810.5
11864.7
11879.3
11961.9
11970.4
12054.2
12068.2
12144.9
12164
12227.7
12258.9
12302.2
12351.7
12366.2
12440.1
12420.9
12523.5
12488.7
12616.5
12625.2
12634.8
12779.3
12693.8
12958.3
13014.2
12931
13333.8
13331.7
13215.6
13603.7
13549.5
13442.4
13980.4
14080.7
13963.9
14110.9
14899.7
14590.9
14389.3
14701.6
15438.3
15153.8
14719.2
14866.4
15320.8
16156.7
15011.4
14535.3
14592.9
14856.7
15393.1
15878.5
14091.5
13355.1
13268.2
13241.9
13296.4
13457.2
13812
14089.7
13790.3
11077.6
10764.2
10587.1
10429.3
10260.3
10099.3
9945.44
9814.84
9712.91
9629.87
9563.21
9517.56
9488.5
9471.27
9456.19
9419.99
9319.21
9087.83
8655.54
7981.31
7356.01
6499.01
6378.15
6361.38
6498.1
6667.75
6855.55
7041.48
7219.91
7389.19
7550
7703.84
7852.73
7999.23
8146.65
8299.35
8462.82
8642.14
8839.71
9067.02
9322.52
9437.09
8544.51
8571.97
8515.01
8526.71
8505.76
8512.39
8548.58
8635.18
8665.37
8460.98
8316.98
8212.82
8164.94
8163.83
8235.92
8133.19
7977.62
7932.39
7973.28
8064.93
8127.65
8107.36
8191
8371.25
8689.48
8720.14
8901.05
9189.01
9470.42
9512.99
9776.42
10087.6
10069.8
10280.9
10509.6
10498.9
10683.8
10835.5
10811
10921.8
10962.9
11029.5
11142.5
11150.3
11267.9
11297.7
11369.8
11415.3
11458.8
11515.6
11537.6
11593.7
11603
11652.8
11655.4
11695.5
11694.4
11722.8
11713.9
11736.4
11740.9
11726.6
11742.2
11719.6
11722.4
11718.2
11688.5
11691.7
11677.3
11644.4
11642.2
11624
11591.4
11581.9
11563.9
11533.2
11516.4
11500.2
11473.2
11450.5
11437.7
11414.2
11387
11377.6
11356.8
11328.4
11319
11299.4
11271.7
11262.1
11241.3
11216.6
11204.8
11181.3
11164.1
11147.1
11121.7
11108.8
11082.5
11068.5
11043.4
11025
11001.3
10980.5
10956.3
10934.7
10909.8
10885.8
10865
10843.1
10828.1
10804.6
10788.9
10766.5
10745.7
10726.9
10699.6
10680.2
10658.5
10626.5
10605.6
10577.2
10534.7
10502.9
10468.4
10424.7
10384
10346
10304.8
10256.3
10210.9
10167.1
10120.4
10066.7
10013.4
9961.08
9909.74
9849.84
9788.75
9725.72
9662.41
9598.53
9529.81
9456.42
9381.07
9303.15
9222.89
9134.86
9038.27
8934.29
8826.19
8714.54
8599.12
8483.36
8369
8255.18
8136.62
8014.05
7887.39
7756.52
7621.19
7481.26
7336.4
7187.09
7032.49
6871.75
6704.74
6531
6350.04
6161.34
5964.93
5762.57
5562.44
5381.3
5282.96
5314.08
6271.89
9441.41
23707
13206.1
6970.36
5576.57
5133.13
4935.01
4823.36
4752.51
4702.64
4665.55
4637.66
4617.65
4605.53
4602.48
4611.05
4636.01
4685.91
4777.69
4946.13
5268.72
5978.82
7906.49
13520.8
20974.2
4943.67
3385.41
2912.26
2901.69
2965.71
3083.14
3218.06
3357.82
3494.61
3626.85
3753.98
3876.1
3993.5
4106.55
4215.5
4320.87
4423.12
4522.14
4618.12
4711.16
4801.34
4888.62
4972.86
5053.49
5132.67
5209.7
5284.37
5356.69
5426.97
5494.82
5559.3
5621.51
5682.88
5742.73
5800.81
5857.5
5910.88
5961.28
6011.85
6062
6110.98
6157.99
6199.99
6243.02
6286.5
6329.45
6367.9
6405.01
6443.3
6482.73
6517.38
6550.53
6585.65
6621.74
6652.04
6681.9
6718.08
6746.67
6773.82
6808.78
6835.93
6861.49
6894.47
6919.67
6947.15
6976.03
6998.7
7029.64
7051.6
7081.41
7105.07
7130.94
7156.14
7180.58
7205.97
7230.11
7255.82
7278.36
7306.09
7325.39
7355.27
7373.77
7403.75
7425.83
7449.61
7477.76
7496.87
7527.41
7553.53
7572.26
7605.55
7632.19
7651.33
7685.16
7693.37
7696.82
7710.07
7722.51
7737.08
7770.75
7807.08
7835.78
7865.21
7907.41
7939.79
7964.25
8011.7
8046.67
8065.7
8118.11
8153.95
8172.28
8229.23
8263.4
8289.79
8348.19
8367.6
8425.62
8467.99
8482.34
8546.14
8555.94
8620.29
8634.42
8692.85
8710.57
8759.43
8785.46
8819.8
8857.93
8872.39
8926.37
8918.41
8991.82
8975.09
9067.81
9074.05
9091.51
9189.31
9146.69
9339.91
9369.15
9343.53
9632.26
9614.76
9578.63
9842.23
9775.63
9761.63
10148
10189.1
10122.2
10310.4
10799.3
10524
10460.3
10751.3
11186.1
10872.6
10637.8
10803.7
11182
11519.4
10593.6
10384.6
10494
10710.6
11040.4
11006.6
9680.3
9313.13
9329.54
9354.86
9412.01
9518.73
9657.95
9615.82
9108.61
7514.47
7353.6
7248.66
7161.48
7065.26
6970.37
6878.22
6804.49
6741.29
6685.18
6634.33
6587.98
6539.78
6481.55
6401.22
6280.57
6097.21
5830.91
5482.33
5074.97
4774.92
4458.18
4371.11
4349.61
4424.3
4529.85
4657.42
4790.97
4924.19
5053.91
5179.39
5301.05
5419.99
5537.76
5656.44
5778.6
5907.06
6043.74
6188.01
6338.71
6475.2
6495.62
6010.2
6030.51
5997.85
6013.79
6008.14
6020.88
6053.65
6115.32
6125.74
5986.89
5885.14
5801.5
5758.58
5748.11
5784.95
5688.42
5554.97
5497.79
5504.29
5539.28
5549.65
5509.83
5540.91
5633.71
5840.78
5876.35
5990.37
6196.37
6434.23
6491.69
6678.69
6950.38
6967.61
7119.86
7321.59
7333.44
7469.07
7604.18
7595.42
7672.94
7717.69
7769.75
7862.22
7875.02
7965.13
7995.63
8052
8091.53
8126.63
8172.89
8192.18
8236.65
8246.33
8285.24
8289.54
8320.71
8321.73
8343.8
8338.16
8355.17
8359.56
8348.91
8360.54
8343.61
8345.1
8342.03
8318.86
8320.44
8309.29
8283.32
8280.49
8266.27
8240.35
8231.96
8217.59
8193.1
8179.07
8165.93
8144.4
8125.94
8115.28
8096.71
8074.83
8066.86
8050.55
8027.86
8019.94
8004.6
7982.53
7974.51
7958.22
7938.53
7928.85
7910.34
7896.46
7882.95
7862.86
7852.28
7831.52
7820.08
7800.25
7785.42
7766.58
7749.91
7730.52
7713.28
7693.33
7674.16
7657.17
7639.86
7627.73
7609.77
7596.96
7579.96
7563.42
7548.76
7527.88
7512.02
7495.41
7471.02
7453.53
7432.2
7399.33
7373.27
7346.25
7312.22
7279.39
7248.99
7216.77
7178.83
7142.36
7107.51
7071.13
7029.32
6987.16
6945.73
6905.28
6859.39
6811.72
6762.5
6712.84
6663.1
6610.33
6553.86
6495.6
6435.46
6373.34
6305.83
6232.1
6152.77
6070.04
5984.58
5896.38
5807.77
5720.07
5633.16
5543.57
5451.23
5355.98
5257.73
5156.32
5051.64
4943.49
4832.06
4716.93
4597.62
4473.99
4345.77
4212.84
4075.38
3934.59
3793.97
3662.71
3556.03
3517.96
3559.98
4275.88
6524.74
16814.6
11815.5
7042.32
5008.36
4254.76
3903.97
3707.69
3585.73
3504.73
3449.13
3411.59
3388.72
3379.66
3385.73
3410.65
3461.68
3551.83
3707.26
3980.21
4485.02
5502.78
7631
11230
14317.9
3595.99
2479.25
2107.8
2086.14
2111.5
2180.45
2268.24
2365.49
2465.12
2563.9
2660.24
2753.56
2843.78
2931.01
3015.38
3097.16
3176.58
3253.62
3328.41
3401
3471.42
3539.64
3605.61
3669.13
3731.55
3792.33
3851.33
3908.58
3964.22
4017.9
4069.14
4118.91
4168.09
4216.04
4262.61
4307.89
4350.59
4391.46
4432.52
4473.09
4512.77
4550.59
4584.89
4620.32
4656.04
4690.84
4722.16
4752.87
4784.64
4816.75
4845.08
4872.69
4901.96
4931.37
4956.31
4981.66
5011.25
5034.72
5057.92
5086.57
5108.91
5130.74
5157.79
5178.84
5201.93
5225.64
5244.97
5270.39
5289.04
5313.67
5333.48
5355.06
5376.06
5396.48
5417.65
5437.82
5459.19
5478.14
5501.02
5517.43
5542.03
5557.77
5582.56
5600.98
5620.94
5644.13
5660.35
5685.71
5707.2
5723.18
5750.74
5772.62
5788.86
5816.18
5822.71
5826.04
5837.13
5847.46
5860.38
5888.43
5918.34
5942.22
5967
6001.73
6028.35
6049.31
6088.28
6116.69
6133.44
6176.34
6205.34
6221.74
6268.22
6296.17
6319.13
6366.12
6383.64
6430.85
6464.7
6478.38
6528.88
6539.06
6589.76
6603.42
6649.08
6665.36
6703.78
6725.94
6753.73
6784.09
6797.85
6838.71
6837.3
6891.79
6885.73
6955.07
6960.41
6980.99
7050.07
7032.44
7177.43
7193.11
7198.3
7411.09
7389.23
7394.8
7579.54
7514.57
7547.26
7832.31
7842.86
7809.37
7999.72
8305.45
8072.26
8080.13
8332.5
8581.02
8285.52
8163.4
8320.8
8608.62
8679.15
7954.82
7879.01
7994.28
8151.15
8321.77
8078.3
7126.73
6938.29
6984.77
7021.04
7062.41
7113.98
7125.67
6962.97
6509.98
5535.4
5421.41
5342.99
5285.78
5224.74
5162.75
5104.01
5053.94
5006.42
4959.32
4910.46
4857.23
4793.78
4713.1
4606.94
4466.54
4286.06
4067.21
3827.95
3590.6
3436.6
3305.05
3244.65
3225.13
3266.83
3334.64
3423.97
3522.89
3625.76
3728.84
3830.56
3930.58
4029.3
4127.59
4226.7
4328.08
4433.07
4542.03
4652.9
4760.22
4842.56
4839.29
4560.31
4570.66
4552.7
4571.38
4576.72
4594.1
4625.54
4673.99
4678.1
4578.57
4504.66
4440.2
4405.86
4394.99
4415.67
4332.75
4222.7
4167.54
4160.49
4171.24
4160.33
4113.67
4116.68
4162.36
4293.86
4320.68
4388.36
4530.71
4719.98
4779.4
4912.69
5143.2
5180.24
5293.58
5469.85
5496.02
5599.33
5719.35
5721.84
5780.23
5825.88
5868.84
5946.12
5962.11
6033.31
6063.4
6109.15
6143.99
6173.35
6211.94
6229.33
6265.54
6275.38
6306.68
6312.04
6336.96
6339.33
6357.03
6353.59
6366.94
6371.18
6363.12
6372.1
6359.13
6359.82
6357.56
6339.11
6339.65
6330.9
6309.91
6306.85
6295.46
6274.38
6266.93
6255.24
6235.27
6223.36
6212.46
6194.9
6179.55
6170.53
6155.46
6137.49
6130.57
6117.43
6098.91
6092.03
6079.7
6061.68
6054.75
6041.65
6025.53
6017.32
6002.36
5990.83
5979.76
5963.38
5954.43
5937.61
5927.94
5911.82
5899.49
5884.03
5870.26
5854.29
5840.02
5823.61
5807.76
5793.36
5778.78
5768.3
5753.67
5742.63
5728.83
5714.93
5702.69
5685.74
5672.02
5658.4
5638.77
5623.37
5606.42
5580.14
5558.05
5535.95
5508.38
5480.92
5455.49
5429.11
5398.13
5367.66
5338.51
5308.64
5274.67
5239.8
5205.31
5171.77
5134.58
5095.47
5055
5013.94
4972.95
4929.96
4884.02
4836.4
4787.28
4736.38
4681.71
4622.54
4559.06
4492.73
4424.13
4353.41
4282.02
4210.96
4140.43
4068.24
3994.14
3917.87
3839.36
3758.49
3675.2
3589.35
3501.03
3410.01
3316.08
3219.17
3119.24
3016.53
2911.83
2807.27
2707.27
2620.58
2559.08
2553.15
2618.82
3166.07
4825.51
12315.9
10229.6
6998.88
4926.22
3937.01
3442.03
3162.99
2991.5
2879.98
2806.15
2758.76
2732.21
2724.61
2737.08
2773.96
2844.25
2964.94
3166.42
3507.56
4103.41
5161.93
6880.45
8989.2
10046
2761.2
1929.84
1635.52
1597.24
1602.59
1642.07
1699.27
1767.77
1841.63
1917.31
1992.65
2066.56
2138.59
2208.64
2276.68
2342.82
2407.17
2469.72
2530.57
2589.71
2647.17
2702.91
2756.95
2809.24
2860.59
2910.63
2959.27
3006.52
3052.43
3096.75
3139.25
3180.7
3221.68
3261.6
3300.38
3337.97
3373.53
3407.9
3442.42
3476.41
3509.55
3541.03
3570.05
3600.11
3630.33
3659.42
3685.79
3711.94
3739
3765.88
3789.75
3813.35
3838.31
3862.89
3884.01
3905.97
3930.71
3950.5
3970.69
3994.67
4013.5
4032.47
4055.12
4073.08
4092.82
4112.69
4129.46
4150.73
4166.84
4187.56
4204.45
4222.75
4240.57
4257.91
4275.86
4292.99
4311.05
4327.24
4346.42
4360.58
4381.17
4394.75
4415.58
4431.2
4448.21
4467.61
4481.59
4502.96
4520.93
4534.76
4557.92
4576.18
4590.11
4612.47
4618
4621.37
4631.09
4640.08
4651.79
4675.54
4700.58
4720.76
4741.95
4771.04
4793.31
4811.51
4844.09
4867.62
4882.51
4918.27
4942.2
4956.98
4995.62
5018.92
5039.11
5077.7
5093.59
5132.73
5160.4
5173.27
5214.17
5224.34
5265.19
5278.2
5314.71
5329.69
5360.59
5379.83
5402.78
5427.67
5440.55
5472.5
5475.05
5516.83
5517.34
5570.56
5575.79
5597.31
5648.04
5645.48
5756.75
5765.55
5787.35
5947.58
5925.98
5953.38
6085.36
6027.1
6082.72
6297.08
6291.77
6280.56
6457.21
6646.18
6453.3
6497.35
6708.48
6838.47
6576.74
6519.08
6656.15
6862.27
6793.15
6235.1
6223.89
6325.58
6427.59
6490.56
6189.86
5513.58
5411.34
5459.08
5490.97
5514.24
5524.82
5473.32
5285.94
4930.57
4306.69
4210.76
4143.5
4099.93
4056.71
4011.68
3970.7
3931.01
3889.69
3844.96
3794.59
3735.83
3664.46
3576.07
3467.03
3335.7
3184.61
3021.97
2864.12
2723.15
2640.46
2576.28
2535.2
2519.87
2543.54
2588.23
2652.04
2726.64
2807.55
2891.15
2975.43
3059.49
3143.22
3226.99
3311.45
3397.33
3485.14
3574.39
3662.5
3743.35
3800.67
3797.35
3628.89
3632.41
3622.95
3642.91
3655.11
3675.17
3705.19
3745.17
3747.61
3674.13
3619.02
3569.44
3542.81
3533.71
3546.03
3476.3
3385.92
3336.36
3324.1
3323.99
3305.04
3258.11
3246.83
3267.25
3351.02
3368.01
3405.54
3502.41
3648.47
3703.34
3798.71
3990.86
4037.92
4124.75
4278.17
4313.26
4394.82
4501.65
4512.15
4558.76
4603.88
4640.95
4706.88
4724.95
4782.81
4812.04
4850.38
4881.53
4906.87
4939.76
4955.78
4985.98
4995.86
5021.68
5027.69
5048.15
5051.4
5066
5064.1
5074.88
5078.98
5072.81
5079.93
5069.82
5070.02
5068.36
5053.37
5053.27
5046.27
5028.96
5025.83
5016.54
4999.06
4992.37
4982.67
4966.07
4955.79
4946.58
4931.95
4918.93
4911.16
4898.66
4883.58
4877.47
4866.65
4851.18
4845.1
4834.95
4819.91
4813.78
4802.98
4789.48
4782.37
4769.98
4760.17
4750.85
4737.19
4729.42
4715.45
4707.08
4693.66
4683.14
4670.13
4658.48
4644.99
4632.88
4619.03
4605.59
4593.11
4580.36
4570.97
4558.54
4548.7
4537.02
4524.92
4514.28
4499.97
4487.73
4476.09
4459.64
4445.77
4431.67
4410.09
4390.92
4372.27
4349.26
4325.69
4303.78
4281.45
4255.39
4229.24
4204.13
4178.69
4150.15
4120.43
4090.8
4062.02
4030.7
3997.52
3963.1
3928
3892.98
3856.57
3817.79
3777.47
3735.86
3692.64
3646.72
3597.48
3544.9
3489.91
3433.01
3374.37
3314.91
3255.38
3196.05
3135.59
3073.75
3010.28
2945.08
2878.09
2809.27
2738.53
2665.9
2591.28
2514.63
2435.98
2355.54
2273.88
2192.36
2113.67
2042.32
1985.84
1952.44
1956.78
2041.53
2476.14
3734.16
9173.92
8597.26
6599.12
4867.35
3816.2
3227.24
2881.64
2666.39
2526.52
2434.36
2376.1
2344.63
2336.85
2353.37
2398.51
2481.45
2618.91
2840.02
3195.68
3768.76
4659.79
5854.05
6986.02
7141.48
2201.68
1566.58
1326.63
1275.77
1272.87
1294.02
1330.76
1378.97
1433.97
1492.59
1552.53
1612.37
1671.32
1729.06
1785.44
1840.43
1894.05
1946.32
1997.26
2046.87
2095.15
2142.08
2187.7
2232
2275.47
2317.87
2359.13
2399.26
2438.24
2475.92
2512.21
2547.7
2582.76
2616.89
2650.05
2682.13
2712.6
2742.25
2771.99
2801.17
2829.56
2856.43
2881.64
2907.67
2933.73
2958.65
2981.4
3004.15
3027.66
3050.65
3071.23
3091.81
3113.49
3134.47
3152.74
3172.08
3193.15
3210.21
3228.04
3248.48
3264.69
3281.42
3300.71
3316.31
3333.46
3350.42
3365.18
3383.29
3397.42
3415.13
3429.76
3445.54
3460.89
3475.86
3491.32
3506.09
3521.59
3535.63
3551.98
3564.37
3581.87
3593.76
3611.52
3624.97
3639.68
3656.17
3668.38
3686.67
3701.93
3714.05
3733.8
3749.27
3761.37
3779.91
3784.77
3788.19
3796.94
3804.97
3815.71
3836.13
3857.43
3874.74
3893.13
3917.88
3936.81
3952.83
3980.51
4000.33
4013.7
4044
4064.1
4077.52
4110.17
4129.91
4147.86
4180.11
4194.6
4227.59
4250.64
4262.72
4296.48
4306.44
4340
4352.32
4382.08
4395.93
4421.26
4438.25
4457.54
4478.46
4490.46
4516.17
4521.18
4554.15
4558.81
4600.59
4606.08
4627.5
4666.12
4672.83
4759.82
4765.27
4795.76
4918.4
4898.93
4937.25
5032.57
4982.4
5048.13
5211.46
5198.26
5201.51
5358.66
5471.12
5313.43
5373.9
5546.36
5600.02
5375.16
5353.74
5466.38
5605.99
5469.8
5042.56
5059.76
5141.06
5199.15
5196.45
4907.58
4424.71
4363.7
4402.26
4424.97
4433.01
4417.77
4340.9
4165.8
3895.95
3479.78
3393.77
3332.22
3295.09
3261.1
3226.18
3193.05
3157.81
3118.67
3074.09
3022.18
2960.87
2887.74
2801.06
2700.67
2588.78
2470.67
2354.28
2250.68
2164.97
2116.43
2079.79
2052.19
2041.12
2054.82
2084.9
2131.09
2187.88
2252.08
2320.53
2391.16
2462.7
2534.63
2606.91
2679.77
2753.48
2828
2902.47
2974.27
3038.06
3082.89
3086.07
2982.23
2981.7
2977.13
2997.33
3013.52
3034.84
3063.21
3097.25
3099.93
3044.9
3002.87
2964.5
2944.09
2937.15
2944.82
2886.39
2811.76
2768.3
2754.41
2749.35
2727.96
2683.59
2665.3
2671.88
2725.59
2734.71
2753.01
2818.37
2929.3
2976.88
3045.19
3203.31
3254.09
3322.12
3455.22
3495.51
3561.91
3657.23
3673.44
3712.35
3756.2
3789.31
3846.56
3865.99
3914.18
3942.36
3975.36
4003.55
4025.98
4054.53
4069.51
4095.21
4105.06
4126.81
4133.24
4150.42
4154.25
4166.59
4165.79
4174.72
4178.66
4173.92
4179.7
4171.72
4171.63
4170.41
4158.04
4157.53
4151.84
4137.33
4134.23
4126.51
4111.78
4105.73
4097.55
4083.51
4074.51
4066.6
4054.21
4042.98
4036.17
4025.63
4012.75
4007.27
3998.19
3985.05
3979.59
3971.06
3958.28
3952.78
3943.7
3932.18
3925.89
3915.42
3906.92
3898.92
3887.3
3880.43
3868.6
3861.21
3849.81
3840.67
3829.5
3819.43
3807.81
3797.34
3785.41
3773.78
3762.8
3751.4
3742.79
3731.94
3722.98
3712.81
3702.03
3692.54
3680.14
3669.01
3658.76
3644.6
3631.93
3619.78
3601.65
3584.75
3568.61
3548.98
3528.39
3509.11
3489.71
3467.32
3444.44
3422.34
3400.14
3375.54
3349.64
3323.64
3298.35
3271.25
3242.43
3212.47
3181.79
3151.13
3119.45
3085.87
3050.87
3014.76
2977.18
2937.58
2895.51
2850.81
2804.1
2755.73
2705.91
2655.24
2604.24
2553.17
2501.27
2448.33
2394.13
2338.6
2281.69
2223.37
2163.6
2102.39
2039.73
1975.68
1910.43
1844.41
1778.55
1714.59
1655.38
1604.96