/*--------------------------------*- C++ -*----------------------------------*\
| =========                 |                                                 |
| \\      /  F ield         | OpenFOAM: The Open Source CFD Toolbox           |
|  \\    /   O peration     | Version:  v2012                                 |
|   \\  /    A nd           | Website:  www.openfoam.com                      |
|    \\/     M anipulation  |                                                 |
\*---------------------------------------------------------------------------*/
FoamFile
{
    version     2.0;
    format      ascii;
    class       volScalarField;
    location    "853";
    object      p;
}
// * * * * * * * * * * * * * * * * * * * * * * * * * * * * * * * * * * * * * //

dimensions      [0 2 -2 0 0 0 0];


internalField   nonuniform List<scalar> 
103390
(
0.037026
0.0370258
0.0501546
0.053762
0.0589212
0.0619904
0.0647716
0.0668576
0.0685565
0.0699112
0.0709978
0.0718549
0.0725177
0.0730047
0.0733612
0.0736073
0.0737193
0.0737248
0.0736288
0.0734398
0.0731644
0.0728122
0.0723332
0.0718891
0.0713514
0.0707402
0.070049
0.0692845
0.0684721
0.0675496
0.0666084
0.0656982
0.0646675
0.063574
0.0624099
0.0611491
0.0598089
0.0586167
0.0572527
0.0557961
0.0543129
0.0525071
0.0512138
0.0494176
0.0478763
0.0456946
0.0440986
0.0421301
0.0403712
0.0378681
0.0360556
0.0338481
0.031775
0.0289252
0.0269374
0.0246094
0.0215438
0.0191967
0.0168589
0.0132581
0.0109727
0.00805737
0.0044035
0.00209353
-0.00183309
-0.00507072
-0.00797712
-0.0127718
-0.014588
-0.0207345
-0.0219374
-0.0287855
-0.0300578
-0.0372419
-0.0386771
-0.0462232
-0.0479805
-0.0554963
-0.0582439
-0.0648261
-0.0693286
-0.0746227
-0.0808616
-0.0856025
-0.0922342
-0.0982738
-0.103544
-0.11134
-0.117175
-0.123445
-0.131594
-0.138175
-0.144692
-0.153929
-0.1608
-0.168038
-0.177612
-0.185492
-0.193343
-0.203021
-0.212151
-0.220652
-0.229936
-0.240935
-0.249688
-0.258428
-0.271545
-0.280118
-0.288556
-0.303567
-0.311396
-0.320665
-0.336145
-0.343214
-0.354875
-0.369921
-0.3723
-0.396277
-0.397513
-0.41245
-0.426949
-0.428382
-0.457632
-0.445821
-0.488764
-0.464769
-0.517452
-0.487331
-0.54187
-0.515437
-0.560048
-0.550741
-0.571099
-0.59263
-0.579176
-0.635304
-0.604921
-0.644555
-0.655822
-0.631427
-0.705161
-0.672397
-0.669065
-0.734781
-0.710687
-0.682358
-0.797813
-0.731544
-0.71964
-0.804315
-0.774512
-0.792878
-0.724203
-0.923774
-0.757342
-0.809118
-0.741879
-0.913484
-0.821962
-0.750956
-0.782382
-0.707795
-0.963536
-0.730224
-0.702803
-0.634017
-0.676552
-0.613729
-0.837768
-0.640415
-0.527275
-0.466499
-0.44147
-0.42608
-0.416374
-0.4304
-0.413448
-0.60619
-0.334318
-0.257688
-0.194318
-0.166532
-0.141481
-0.125025
-0.111382
-0.101032
-0.0927155
-0.0863438
-0.0814812
-0.0779061
-0.075499
-0.0743071
-0.074319
-0.0755686
-0.0783374
-0.0813226
-0.0813535
-0.101454
-0.147178
-0.0202394
0.0228561
0.0623685
0.0888633
0.111121
0.129459
0.145347
0.159298
0.171791
0.183111
0.193483
0.203067
0.211983
0.220321
0.228143
0.235518
0.242497
0.248608
0.253844
0.257245
0.233504
0.375417
0.383239
0.414201
0.420055
0.434509
0.441116
0.450068
0.457551
0.466893
0.513772
0.511954
0.522066
0.519821
0.524742
0.522097
0.523517
0.515889
0.51393
0.502254
0.497079
0.467416
0.471709
0.447349
0.445714
0.398673
0.411487
0.382527
0.367532
0.33933
0.339331
0.319657
0.279785
0.292186
0.266338
0.236313
0.240609
0.221149
0.189119
0.200789
0.171594
0.15705
0.157861
0.125253
0.133945
0.109011
0.102127
0.0953807
0.0761118
0.0815877
0.0546646
0.0655454
0.0378834
0.0486523
0.0248829
0.0321289
0.0148132
0.0168083
0.00694247
0.00368553
0.00170199
-0.0091201
-0.00513223
-0.014058
-0.0144346
-0.0159675
-0.0219983
-0.0200551
-0.0223718
-0.0265673
-0.0237298
-0.0255753
-0.0281406
-0.0254563
-0.0262531
-0.0274664
-0.0254354
-0.0250088
-0.0251537
-0.0240409
-0.022282
-0.0219196
-0.0214652
-0.0186299
-0.0181323
-0.0178726
-0.0145256
-0.0139647
-0.0133236
-0.010217
-0.00942319
-0.00869433
-0.00549004
-0.00488101
-0.0033547
-0.000804955
-0.00031555
0.00246424
0.00372721
0.00498343
0.0079524
0.00768486
0.0120007
0.0110122
0.0156764
0.014629
0.0192431
0.0182002
0.0228622
0.0218481
0.0262897
0.0259797
0.0291162
0.0303103
0.031812
0.0344972
0.0350854
0.0376319
0.0391991
0.0400918
0.0428583
0.0439378
0.0451501
0.0474609
0.0487501
0.0497068
0.051921
0.0531127
0.0545326
0.0555013
0.0574935
0.0584707
0.0597985
0.0606682
0.0624369
0.0633058
0.0646017
0.065212
0.0666339
0.0676141
0.0686083
0.0694897
0.0701725
0.071117
0.0719942
0.0727551
0.0734555
0.0741038
0.0745766
0.075161
0.0757761
0.0762421
0.0766643
0.0770144
0.0772888
0.0774903
0.0775905
0.0777974
0.0778406
0.0778035
0.0776765
0.07745
0.0771136
0.0766635
0.0760593
0.0753503
0.074511
0.0734753
0.0722285
0.070733
0.0689527
0.0667936
0.0642636
0.0609584
0.0576359
0.051876
0.0483106
0.0333324
0.0368679
-0.0637299
-0.0171339
-0.0174883
-0.01054
-0.00611151
-0.00188201
0.00147514
0.00421951
0.00638733
0.00806221
0.00929186
0.0101111
0.0105345
0.0105603
0.0101691
0.00931664
0.00792782
0.00586631
0.00297585
-0.00113577
-0.00600193
-0.0131625
-0.0147595
-0.0522775
0.0333865
0.0376414
0.0501373
0.0537463
0.0588857
0.0619554
0.0647429
0.0668332
0.0685366
0.0698952
0.0709852
0.071845
0.07251
0.072999
0.0733569
0.0736037
0.0737166
0.0737229
0.0736275
0.0734389
0.0731639
0.072812
0.0723337
0.0718894
0.0713517
0.0707405
0.0700495
0.0692851
0.0684728
0.0675505
0.0666093
0.065699
0.0646682
0.0635747
0.0624106
0.06115
0.0598099
0.0586174
0.0572534
0.0557968
0.0543136
0.0525081
0.0512144
0.0494182
0.0478769
0.0456954
0.0440993
0.0421306
0.0403717
0.0378689
0.0360562
0.0338486
0.0317755
0.0289259
0.0269379
0.0246098
0.0215444
0.0191971
0.0168592
0.0132587
0.0109731
0.00805773
0.00440401
0.00209384
-0.00183265
-0.00507035
-0.00797679
-0.0127714
-0.0145877
-0.020734
-0.0219371
-0.0287851
-0.0300576
-0.0372415
-0.0386768
-0.0462229
-0.0479803
-0.0554959
-0.0582436
-0.0648258
-0.0693283
-0.0746224
-0.0808612
-0.0856023
-0.0922339
-0.0982735
-0.103544
-0.11134
-0.117175
-0.123444
-0.131593
-0.138174
-0.144692
-0.153928
-0.160799
-0.168038
-0.177611
-0.185491
-0.193343
-0.20302
-0.21215
-0.220651
-0.229935
-0.240934
-0.249687
-0.258427
-0.271545
-0.280117
-0.288555
-0.303566
-0.311395
-0.320664
-0.336144
-0.343213
-0.354874
-0.369919
-0.372299
-0.396275
-0.397512
-0.412449
-0.426947
-0.428381
-0.457629
-0.44582
-0.48876
-0.464768
-0.517447
-0.48733
-0.541865
-0.515435
-0.560043
-0.550738
-0.571095
-0.592623
-0.579176
-0.635291
-0.60492
-0.644546
-0.655811
-0.63143
-0.70513
-0.672394
-0.669067
-0.734729
-0.710689
-0.682365
-0.797722
-0.731546
-0.719649
-0.804238
-0.774441
-0.792887
-0.724226
-0.923496
-0.757329
-0.809125
-0.741902
-0.913121
-0.821785
-0.750958
-0.782405
-0.707882
-0.962442
-0.730065
-0.702819
-0.634047
-0.676569
-0.613841
-0.835853
-0.639659
-0.527293
-0.466587
-0.441519
-0.426114
-0.41637
-0.430358
-0.413667
-0.600357
-0.333922
-0.257649
-0.194455
-0.166643
-0.141582
-0.125113
-0.111461
-0.101104
-0.0927808
-0.0864026
-0.0815306
-0.077953
-0.0755307
-0.0743146
-0.074269
-0.0754028
-0.0779671
-0.0804918
-0.0807324
-0.0988836
-0.125548
-0.0198071
0.0241831
0.062659
0.0890027
0.111143
0.129434
0.145299
0.15924
0.171728
0.183049
0.193423
0.20301
0.211931
0.220275
0.228104
0.235486
0.242477
0.248618
0.253888
0.25739
0.235465
0.374874
0.383145
0.414114
0.419991
0.434459
0.441079
0.450047
0.457602
0.466974
0.513658
0.511914
0.522038
0.5198
0.524723
0.522079
0.5235
0.515879
0.51392
0.502244
0.497064
0.467434
0.471704
0.447345
0.445699
0.398699
0.411484
0.382523
0.367535
0.33934
0.339328
0.319651
0.279802
0.292184
0.266335
0.236324
0.240608
0.221147
0.189129
0.200788
0.171596
0.157055
0.15786
0.125257
0.133945
0.109013
0.102129
0.0953813
0.0761143
0.0815879
0.054667
0.0655457
0.0378855
0.0486527
0.0248846
0.0321295
0.0148146
0.0168092
0.00694353
0.00368638
0.00170261
-0.00911888
-0.00513177
-0.014057
-0.0144341
-0.015967
-0.0219974
-0.0200548
-0.0223713
-0.0265666
-0.0237295
-0.0255748
-0.02814
-0.0254561
-0.0262527
-0.0274659
-0.0254351
-0.0250085
-0.0251533
-0.0240406
-0.0222818
-0.0219193
-0.0214649
-0.0186298
-0.018132
-0.0178723
-0.0145255
-0.0139645
-0.0133233
-0.0102169
-0.00942299
-0.00869406
-0.00548995
-0.00488079
-0.0033545
-0.00080482
-0.000315297
0.00246435
0.00372742
0.00498361
0.00795256
0.00768512
0.0120008
0.0110125
0.0156765
0.0146293
0.0192432
0.0182006
0.0228623
0.0218485
0.0262898
0.0259801
0.0291164
0.0303106
0.0318124
0.0344974
0.0350858
0.0376321
0.0391993
0.0400924
0.0428584
0.0439381
0.0451508
0.047461
0.0487505
0.0497075
0.0519213
0.053113
0.0545332
0.0555021
0.0574938
0.0584711
0.0597992
0.0606691
0.0624373
0.0633062
0.0646022
0.0652131
0.0666345
0.0676146
0.0686088
0.0694903
0.0701736
0.0711178
0.0719947
0.0727556
0.073456
0.0741044
0.074578
0.0751623
0.075777
0.076243
0.0766651
0.077015
0.077289
0.0774905
0.0775908
0.0777965
0.0778392
0.0778016
0.077674
0.0774467
0.0771094
0.0766583
0.0760534
0.0753428
0.0745012
0.0734631
0.0722137
0.0707152
0.0689315
0.0667688
0.0642361
0.0609258
0.0576127
0.0518896
0.0483438
0.0340264
0.033236
-0.0520261
-0.0175836
-0.0174388
-0.0106477
-0.00621091
-0.00196089
0.00141141
0.00416752
0.00634319
0.00802315
0.00925608
0.0100763
0.0104987
0.0105214
0.0101244
0.00926228
0.00785855
0.00577551
0.00285415
-0.0013033
-0.006194
-0.0132461
-0.0151106
-0.0419797
0.0328513
0.0382418
0.0501158
0.0537854
0.0588619
0.0619228
0.0647091
0.0668013
0.0685112
0.0698744
0.0709687
0.071832
0.0725002
0.0729921
0.0733517
0.0735993
0.0737134
0.0737207
0.0736261
0.0734382
0.0731637
0.0728123
0.0723353
0.0718906
0.0713525
0.0707415
0.0700507
0.0692863
0.0684741
0.0675524
0.0666114
0.0657003
0.0646695
0.063576
0.0624119
0.0611517
0.0598118
0.0586186
0.0572545
0.0557979
0.0543148
0.0525099
0.0512156
0.0494192
0.0478778
0.0456969
0.0441005
0.0421314
0.0403725
0.0378702
0.0360572
0.0338493
0.0317763
0.0289272
0.0269386
0.0246103
0.0215456
0.0191978
0.0168597
0.0132598
0.0109737
0.00805827
0.00440496
0.00209431
-0.00183188
-0.00506971
-0.00797628
-0.0127706
-0.0145874
-0.0207332
-0.0219368
-0.0287843
-0.0300571
-0.0372408
-0.0386764
-0.0462221
-0.0479799
-0.0554953
-0.0582432
-0.0648252
-0.0693277
-0.074622
-0.0808606
-0.0856018
-0.0922333
-0.0982729
-0.103543
-0.111339
-0.117175
-0.123444
-0.131592
-0.138174
-0.144691
-0.153927
-0.160799
-0.168038
-0.17761
-0.18549
-0.193342
-0.203019
-0.212149
-0.22065
-0.229934
-0.240933
-0.249686
-0.258426
-0.271543
-0.280116
-0.288554
-0.303564
-0.311393
-0.320663
-0.336141
-0.343211
-0.354872
-0.369916
-0.372297
-0.39627
-0.397509
-0.412446
-0.426943
-0.428379
-0.457623
-0.445819
-0.488751
-0.464766
-0.517437
-0.487327
-0.541853
-0.51543
-0.560032
-0.550729
-0.571087
-0.592607
-0.579175
-0.635261
-0.604915
-0.644525
-0.655786
-0.631437
-0.70506
-0.672384
-0.669074
-0.734612
-0.710684
-0.682383
-0.797514
-0.731532
-0.719675
-0.804054
-0.774261
-0.79291
-0.724273
-0.922869
-0.757242
-0.809169
-0.741935
-0.912272
-0.821323
-0.750971
-0.782487
-0.70801
-0.960062
-0.72949
-0.702952
-0.634115
-0.676638
-0.613922
-0.831731
-0.637745
-0.527477
-0.466869
-0.441665
-0.426196
-0.416324
-0.430167
-0.41356
-0.589457
-0.331887
-0.258183
-0.194919
-0.167046
-0.141883
-0.125377
-0.111678
-0.101291
-0.0929275
-0.0865064
-0.0815853
-0.0779535
-0.0754175
-0.0740275
-0.0736651
-0.0742843
-0.0760556
-0.0773309
-0.0774878
-0.0910835
-0.0992166
-0.0162742
0.0248427
0.0622276
0.0883553
0.110519
0.128862
0.144804
0.158815
0.171366
0.18274
0.19316
0.202787
0.211743
0.220118
0.227978
0.235392
0.242424
0.248669
0.253996
0.258129
0.238875
0.374226
0.382727
0.413904
0.419807
0.434337
0.440979
0.449977
0.457714
0.467076
0.513444
0.511792
0.521963
0.519735
0.524665
0.522016
0.523447
0.515841
0.513888
0.502211
0.497034
0.467456
0.47169
0.447329
0.445681
0.398744
0.41148
0.382514
0.367549
0.339361
0.339323
0.319643
0.27984
0.292181
0.266331
0.236352
0.240608
0.221145
0.18915
0.200787
0.171601
0.157067
0.157859
0.125268
0.133947
0.109017
0.102136
0.0953831
0.0761205
0.0815887
0.0546728
0.0655467
0.0378907
0.0486542
0.0248889
0.0321314
0.014818
0.0168113
0.00694616
0.00368849
0.00170414
-0.00911591
-0.00513055
-0.0140547
-0.0144326
-0.0159656
-0.0219952
-0.0200539
-0.02237
-0.0265647
-0.0237288
-0.0255737
-0.0281385
-0.0254554
-0.0262517
-0.0274647
-0.0254344
-0.0250078
-0.0251524
-0.0240399
-0.0222813
-0.0219186
-0.0214641
-0.0186294
-0.0181314
-0.0178715
-0.0145252
-0.013964
-0.0133226
-0.0102167
-0.00942249
-0.0086934
-0.00548972
-0.00488027
-0.00335403
-0.00080449
-0.00031469
0.0024646
0.00372793
0.00498402
0.00795294
0.00768572
0.012001
0.0110132
0.0156768
0.01463
0.0192434
0.0182013
0.0228625
0.0218494
0.02629
0.0259809
0.0291167
0.0303113
0.0318131
0.0344977
0.0350869
0.0376324
0.0391999
0.0400938
0.0428586
0.0439388
0.0451523
0.0474613
0.0487511
0.0497092
0.0519219
0.0531136
0.0545344
0.0555037
0.0574944
0.0584719
0.0598006
0.060671
0.0624381
0.063307
0.0646034
0.0652156
0.0666358
0.0676156
0.0686098
0.0694916
0.0701762
0.0711198
0.071996
0.0727569
0.0734572
0.0741056
0.0745805
0.0751646
0.075778
0.0762439
0.0766658
0.0770156
0.0772897
0.077492
0.0775935
0.0777968
0.0778387
0.0778005
0.077672
0.0774438
0.0771052
0.0766527
0.0760477
0.0753349
0.0744893
0.0734473
0.0721934
0.0706897
0.0689006
0.0667308
0.0641965
0.0608782
0.0575712
0.0518823
0.0483438
0.0344965
0.0331113
-0.039571
-0.0175734
-0.0176158
-0.0108742
-0.00639551
-0.00208625
0.00131709
0.00409868
0.00629064
0.00798099
0.00922014
0.0100423
0.0104625
0.0104786
0.0100695
0.00918778
0.00775332
0.00562319
0.00263825
-0.00161196
-0.0065897
-0.0136018
-0.0152364
-0.0309827
0.0342111
0.0391114
0.0501614
0.0539781
0.0588705
0.0619085
0.0646669
0.0667564
0.0684749
0.0698438
0.070944
0.0718127
0.0724857
0.0729824
0.0733449
0.0735935
0.0737095
0.0737185
0.0736252
0.0734384
0.0731647
0.0728143
0.0723394
0.0718935
0.0713548
0.070744
0.0700534
0.0692891
0.068477
0.0675564
0.0666155
0.0657031
0.0646721
0.0635786
0.0624145
0.0611549
0.0598155
0.058621
0.0572566
0.0558
0.0543172
0.0525134
0.0512176
0.0494208
0.0478794
0.0456997
0.0441028
0.0421329
0.0403738
0.0378726
0.0360591
0.0338505
0.0317775
0.0289296
0.0269398
0.0246112
0.0215478
0.019199
0.0168604
0.0132619
0.0109747
0.00805915
0.00440664
0.00209507
-0.00183054
-0.0050686
-0.00797543
-0.0127692
-0.0145867
-0.0207317
-0.0219362
-0.028783
-0.0300565
-0.0372396
-0.0386758
-0.0462209
-0.0479792
-0.0554941
-0.0582424
-0.0648243
-0.0693268
-0.0746213
-0.0808594
-0.0856011
-0.0922323
-0.0982719
-0.103543
-0.111338
-0.117174
-0.123443
-0.131591
-0.138173
-0.14469
-0.153926
-0.160797
-0.168037
-0.177609
-0.185489
-0.193341
-0.203018
-0.212147
-0.220649
-0.229933
-0.240931
-0.249684
-0.258425
-0.27154
-0.280113
-0.288552
-0.30356
-0.31139
-0.320661
-0.336136
-0.343208
-0.354868
-0.369911
-0.372295
-0.396262
-0.397504
-0.412441
-0.426935
-0.428375
-0.457612
-0.445815
-0.488737
-0.464762
-0.51742
-0.487322
-0.541834
-0.515423
-0.560014
-0.550715
-0.571074
-0.592581
-0.579172
-0.635211
-0.604906
-0.64449
-0.655743
-0.631448
-0.704943
-0.672365
-0.669083
-0.734424
-0.710668
-0.682411
-0.797173
-0.731505
-0.719714
-0.803749
-0.773974
-0.79294
-0.724334
-0.921895
-0.757084
-0.809239
-0.741964
-0.910954
-0.820597
-0.750999
-0.782584
-0.708147
-0.956598
-0.728554
-0.70318
-0.634202
-0.676643
-0.613949
-0.825889
-0.634935
-0.527808
-0.467299
-0.441877
-0.426265
-0.416173
-0.429533
-0.413101
-0.575567
-0.328981
-0.259121
-0.195689
-0.16775
-0.142412
-0.125834
-0.112042
-0.10158
-0.0931129
-0.0865731
-0.081552
-0.0777367
-0.074927
-0.073148
-0.072206
-0.0720544
-0.0727559
-0.07267
-0.0721727
-0.0794441
-0.077439
-0.0118403
0.025701
0.0610331
0.0868419
0.108998
0.127469
0.143581
0.157758
0.17046
0.181966
0.192502
0.202229
0.211274
0.219732
0.227672
0.235166
0.242299
0.248778
0.254191
0.25969
0.242785
0.373127
0.381741
0.41338
0.419354
0.434028
0.440724
0.44977
0.457851
0.467116
0.512955
0.511477
0.521762
0.519558
0.524511
0.521846
0.523302
0.515735
0.513801
0.502119
0.49696
0.467471
0.471654
0.447285
0.445648
0.398812
0.411472
0.382495
0.367575
0.339397
0.339313
0.319634
0.279907
0.292176
0.266325
0.2364
0.240609
0.221143
0.189187
0.200785
0.171609
0.157088
0.157857
0.125287
0.133952
0.109026
0.102148
0.0953864
0.076131
0.0815906
0.054683
0.0655489
0.0378997
0.0486569
0.0248964
0.0321347
0.014824
0.0168152
0.00695082
0.00369215
0.00170687
-0.0091107
-0.00512836
-0.0140507
-0.01443
-0.0159632
-0.0219914
-0.0200522
-0.0223677
-0.0265614
-0.0237275
-0.0255717
-0.0281358
-0.0254542
-0.02625
-0.0274626
-0.0254332
-0.0250065
-0.0251508
-0.0240385
-0.0222803
-0.0219173
-0.0214627
-0.0186288
-0.0181303
-0.0178701
-0.0145247
-0.013963
-0.0133213
-0.0102163
-0.00942159
-0.00869221
-0.00548928
-0.00487931
-0.00335317
-0.000803877
-0.000313577
0.00246509
0.00372887
0.0049848
0.00795364
0.00768684
0.0120015
0.0110144
0.0156773
0.0146312
0.0192439
0.0182027
0.0228629
0.0218511
0.0262903
0.0259826
0.0291175
0.0303125
0.0318147
0.0344984
0.0350891
0.0376332
0.039201
0.0400965
0.0428591
0.0439401
0.0451551
0.0474618
0.0487523
0.0497123
0.0519231
0.0531147
0.0545366
0.0555069
0.0574955
0.0584732
0.0598033
0.0606746
0.0624396
0.0633085
0.0646055
0.0652203
0.0666383
0.0676177
0.0686119
0.069494
0.0701811
0.0711237
0.0719985
0.0727595
0.0734596
0.0741078
0.0745845
0.0751679
0.0757792
0.0762447
0.0766662
0.0770161
0.0772907
0.0774951
0.077599
0.0777983
0.0778388
0.0777995
0.0776697
0.0774398
0.0770991
0.0766443
0.076039
0.0753229
0.0744707
0.0734226
0.0721622
0.0706511
0.0688559
0.0666801
0.0641505
0.0608507
0.0575392
0.051982
0.0483695
0.0351707
0.0348761
-0.0302763
-0.0164489
-0.0170933
-0.0109128
-0.00647199
-0.0021356
0.00128596
0.0040935
0.00630543
0.00800949
0.0092553
0.010079
0.0104953
0.0105008
0.0100722
0.00915841
0.00767555
0.0054823
0.0024362
-0.00183606
-0.00668506
-0.0130357
-0.0143376
-0.0226286
0.0362148
0.0405054
0.0506011
0.0544685
0.0590381
0.0619909
0.0646678
0.066731
0.0684432
0.0698113
0.0709146
0.071788
0.0724662
0.0729686
0.0733348
0.0735849
0.0737037
0.0737152
0.0736239
0.0734388
0.0731665
0.0728175
0.0723456
0.0718981
0.0713584
0.070748
0.0700577
0.0692937
0.0684818
0.0675627
0.0666219
0.0657074
0.0646762
0.0635829
0.0624186
0.0611601
0.0598213
0.0586247
0.05726
0.0558033
0.0543209
0.0525188
0.0512208
0.0494235
0.047882
0.045704
0.0441062
0.0421351
0.0403758
0.0378764
0.036062
0.0338523
0.0317795
0.0289331
0.0269416
0.0246124
0.0215511
0.0192008
0.0168615
0.0132649
0.0109762
0.00806048
0.00440914
0.0020962
-0.00182856
-0.00506697
-0.00797417
-0.0127672
-0.0145859
-0.0207295
-0.0219352
-0.0287811
-0.0300555
-0.0372378
-0.0386748
-0.0462191
-0.0479783
-0.0554924
-0.0582413
-0.0648229
-0.0693254
-0.0746203
-0.0808578
-0.0856
-0.0922308
-0.0982704
-0.103542
-0.111336
-0.117172
-0.123442
-0.131589
-0.138171
-0.144689
-0.153923
-0.160795
-0.168035
-0.177606
-0.185487
-0.193339
-0.203016
-0.212145
-0.220646
-0.229931
-0.240927
-0.249681
-0.258423
-0.271535
-0.28011
-0.28855
-0.303554
-0.311386
-0.320658
-0.33613
-0.343203
-0.354863
-0.369903
-0.372292
-0.396252
-0.397498
-0.412434
-0.426924
-0.428369
-0.457598
-0.44581
-0.488719
-0.464757
-0.517398
-0.487316
-0.54181
-0.515412
-0.55999
-0.550696
-0.571057
-0.592547
-0.579166
-0.635148
-0.604894
-0.644445
-0.655687
-0.63146
-0.704793
-0.672339
-0.669092
-0.734184
-0.710645
-0.682445
-0.796739
-0.731465
-0.719759
-0.803357
-0.773617
-0.792961
-0.724401
-0.920691
-0.756876
-0.809299
-0.741987
-0.90933
-0.819693
-0.751015
-0.782631
-0.708301
-0.952466
-0.727377
-0.703413
-0.634262
-0.676469
-0.613987
-0.819066
-0.631603
-0.52817
-0.46775
-0.442077
-0.426234
-0.415876
-0.428449
-0.412206
-0.56075
-0.325863
-0.260176
-0.196639
-0.168667
-0.143116
-0.126435
-0.112508
-0.10192
-0.0932932
-0.0865468
-0.0813858
-0.0772666
-0.0740773
-0.0718051
-0.070228
-0.0693043
-0.0688785
-0.0674455
-0.0655041
-0.0670342
-0.0592922
-0.00715114
0.0268142
0.0595041
0.084778
0.106761
0.125348
0.141664
0.156067
0.168989
0.180695
0.191409
0.201296
0.210485
0.219077
0.227149
0.23478
0.242067
0.248883
0.254439
0.261634
0.246449
0.371354
0.380212
0.412451
0.418562
0.433462
0.440254
0.449379
0.457897
0.466972
0.512093
0.510895
0.52137
0.519212
0.524203
0.521507
0.523012
0.515517
0.513617
0.501929
0.496805
0.467455
0.471576
0.447195
0.445581
0.39889
0.411452
0.382458
0.367606
0.339444
0.339297
0.319621
0.279996
0.292169
0.266318
0.236464
0.24061
0.221142
0.189237
0.200783
0.171621
0.157115
0.157856
0.125313
0.133957
0.109037
0.102163
0.0953912
0.076145
0.0815936
0.0546966
0.0655519
0.0379118
0.0486605
0.0249065
0.0321391
0.0148321
0.0168204
0.00695714
0.00369705
0.0017106
-0.00910369
-0.00512537
-0.0140452
-0.0144264
-0.0159599
-0.0219863
-0.0200498
-0.0223646
-0.026557
-0.0237256
-0.025569
-0.0281321
-0.0254525
-0.0262478
-0.0274597
-0.0254315
-0.0250047
-0.0251486
-0.0240367
-0.022279
-0.0219156
-0.0214607
-0.0186279
-0.0181289
-0.0178681
-0.014524
-0.0139617
-0.0133195
-0.0102156
-0.00942035
-0.00869054
-0.00548863
-0.00487798
-0.00335195
-0.000803009
-0.000312017
0.00246579
0.00373017
0.00498589
0.00795463
0.00768841
0.0120023
0.0110162
0.015678
0.014633
0.0192447
0.0182047
0.0228636
0.0218536
0.0262909
0.025985
0.0291186
0.0303143
0.0318169
0.0344994
0.0350922
0.0376344
0.0392026
0.0401004
0.0428599
0.043942
0.0451592
0.0474626
0.0487541
0.0497167
0.0519248
0.0531162
0.0545398
0.0555113
0.0574971
0.0584752
0.0598072
0.0606797
0.0624419
0.0633107
0.0646086
0.065227
0.066642
0.0676208
0.0686148
0.0694975
0.070188
0.0711293
0.0720022
0.0727633
0.0734631
0.0741109
0.0745902
0.0751723
0.0757813
0.0762457
0.0766665
0.0770163
0.0772916
0.0774984
0.0776054
0.0777996
0.0778381
0.0777971
0.0776652
0.0774329
0.0770894
0.0766318
0.0760262
0.0753064
0.0744474
0.0733941
0.0721297
0.0706168
0.0688253
0.0666636
0.0641666
0.0609567
0.0576837
0.052424
0.0487093
0.036458
0.0370085
-0.0219738
-0.0129917
-0.0140802
-0.00951528
-0.00564639
-0.00152738
0.00178595
0.00453835
0.00672227
0.00841042
0.00964662
0.0104641
0.0108771
0.0108809
0.0104517
0.00954021
0.00807062
0.00593055
0.0030415
-0.000797573
-0.0047729
-0.00977693
-0.0107309
-0.0146275
0.0387106
0.0425215
0.0516479
0.0553597
0.0594941
0.0622734
0.0647985
0.0667893
0.0684604
0.0698089
0.0709037
0.0717744
0.0724534
0.0729589
0.0733273
0.073578
0.0736991
0.0737129
0.0736236
0.0734402
0.0731694
0.0728219
0.0723534
0.0719041
0.0713634
0.0707534
0.0700635
0.0692997
0.068488
0.0675707
0.0666301
0.0657131
0.0646816
0.0635883
0.062424
0.0611667
0.0598286
0.0586295
0.0572643
0.0558077
0.0543257
0.0525255
0.0512248
0.0494268
0.0478854
0.0457094
0.0441105
0.042138
0.0403785
0.0378811
0.0360656
0.0338546
0.031782
0.0289376
0.0269439
0.0246141
0.0215553
0.019203
0.0168629
0.0132687
0.0109781
0.00806213
0.00441224
0.0020976
-0.00182611
-0.00506496
-0.00797263
-0.0127647
-0.0145848
-0.0207269
-0.0219341
-0.0287788
-0.0300543
-0.0372356
-0.0386736
-0.046217
-0.0479771
-0.0554904
-0.0582399
-0.0648213
-0.0693237
-0.074619
-0.0808558
-0.0855987
-0.0922291
-0.0982687
-0.103541
-0.111334
-0.117171
-0.123441
-0.131587
-0.13817
-0.144688
-0.153921
-0.160793
-0.168033
-0.177603
-0.185484
-0.193337
-0.203013
-0.212142
-0.220644
-0.229928
-0.240923
-0.249678
-0.25842
-0.27153
-0.280106
-0.288547
-0.303548
-0.311381
-0.320655
-0.336122
-0.343198
-0.354858
-0.369895
-0.372287
-0.39624
-0.397491
-0.412426
-0.426912
-0.428363
-0.457581
-0.445804
-0.488697
-0.46475
-0.517372
-0.487308
-0.541781
-0.5154
-0.559962
-0.550674
-0.571037
-0.592508
-0.579159
-0.635073
-0.604879
-0.644391
-0.65562
-0.631475
-0.704617
-0.672308
-0.6691
-0.733903
-0.710615
-0.682481
-0.796236
-0.731415
-0.719805
-0.802897
-0.77321
-0.792962
-0.724472
-0.919314
-0.756629
-0.809328
-0.742007
-0.907474
-0.818645
-0.751
-0.782594
-0.708487
-0.947835
-0.726015
-0.703601
-0.634263
-0.676092
-0.614035
-0.811565
-0.627929
-0.528506
-0.468168
-0.442239
-0.426059
-0.415457
-0.427022
-0.410582
-0.545876
-0.322734
-0.261254
-0.197741
-0.169767
-0.143984
-0.127171
-0.113068
-0.102311
-0.0934848
-0.0864685
-0.0810972
-0.0766287
-0.0730131
-0.0702041
-0.0679591
-0.0661846
-0.0645288
-0.0617286
-0.0579791
-0.0552707
-0.0440262
-0.00232612
0.0282718
0.0581094
0.0825547
0.104116
0.122709
0.139183
0.153823
0.167001
0.178955
0.1899
0.199998
0.20938
0.218153
0.226403
0.234218
0.2417
0.248881
0.254713
0.263565
0.249795
0.369108
0.378312
0.411168
0.417478
0.432659
0.439585
0.448816
0.457793
0.466632
0.510941
0.510094
0.520802
0.518707
0.52375
0.521013
0.522585
0.515187
0.513336
0.501638
0.496562
0.467394
0.471452
0.447052
0.44547
0.398962
0.411417
0.382401
0.367636
0.339496
0.339276
0.319605
0.280099
0.29216
0.266311
0.23654
0.240612
0.221143
0.189295
0.200781
0.171637
0.157147
0.157856
0.125344
0.133964
0.109051
0.102181
0.0953973
0.0761619
0.0815974
0.0547129
0.0655558
0.0379263
0.0486651
0.0249187
0.0321444
0.0148418
0.0168266
0.00696477
0.00370294
0.00171514
-0.00909528
-0.00512174
-0.0140386
-0.0144221
-0.015956
-0.0219801
-0.0200469
-0.0223609
-0.0265517
-0.0237233
-0.0255657
-0.0281278
-0.0254504
-0.0262451
-0.0274562
-0.0254295
-0.0250025
-0.0251459
-0.0240345
-0.0222774
-0.0219135
-0.0214584
-0.0186268
-0.0181271
-0.0178658
-0.0145232
-0.0139601
-0.0133173
-0.0102148
-0.00941886
-0.00868854
-0.00548785
-0.00487638
-0.00335048
-0.000801959
-0.000310129
0.00246665
0.00373175
0.00498721
0.00795583
0.00769031
0.0120032
0.0110183
0.0156789
0.0146352
0.0192456
0.0182071
0.0228643
0.0218566
0.0262916
0.0259878
0.0291198
0.0303165
0.0318195
0.0345006
0.0350959
0.0376358
0.0392045
0.0401051
0.0428609
0.0439443
0.0451642
0.0474637
0.0487562
0.049722
0.0519269
0.0531181
0.0545437
0.0555168
0.0574992
0.0584776
0.0598118
0.060686
0.0624447
0.0633136
0.0646123
0.065235
0.0666465
0.0676246
0.0686185
0.0695017
0.0701963
0.0711361
0.0720068
0.072768
0.0734673
0.074115
0.0745973
0.0751781
0.0757847
0.0762478
0.0766678
0.0770174
0.077293
0.0775023
0.0776127
0.0778013
0.0778379
0.0777952
0.0776611
0.0774267
0.0770809
0.076621
0.0760165
0.0752951
0.0744326
0.0733796
0.0721196
0.0706184
0.0688511
0.066738
0.0643183
0.0612775
0.0581299
0.0532895
0.0495726
0.0383597
0.0392586
-0.0127747
-0.00652022
-0.00781051
-0.00526267
-0.00282751
0.00052641
0.0034304
0.0059293
0.00795733
0.00954823
0.0107272
0.0115173
0.011929
0.0119592
0.0115893
0.0107851
0.00950506
0.00770975
0.00546761
0.00290907
0.000794115
-0.00268461
-0.00328276
-0.00484145
0.0419169
0.0451198
0.0533094
0.0566375
0.0602721
0.0627945
0.0650997
0.0669643
0.068554
0.069857
0.070926
0.0717831
0.0724555
0.0729595
0.0733269
0.0735762
0.0736983
0.0737134
0.0736255
0.0734437
0.0731741
0.0728279
0.0723629
0.0719115
0.0713697
0.07076
0.0700705
0.0693069
0.0684955
0.0675801
0.0666396
0.0657198
0.064688
0.0635948
0.0624303
0.0611745
0.0598371
0.058635
0.0572694
0.0558128
0.0543313
0.0525334
0.0512294
0.0494308
0.0478894
0.0457157
0.0441155
0.0421414
0.0403816
0.0378865
0.0360697
0.0338573
0.0317848
0.0289428
0.0269466
0.0246159
0.02156
0.0192056
0.0168644
0.0132731
0.0109802
0.00806402
0.00441581
0.00209919
-0.00182329
-0.00506265
-0.00797088
-0.0127618
-0.0145835
-0.0207238
-0.0219329
-0.0287761
-0.030053
-0.0372331
-0.0386723
-0.0462145
-0.0479758
-0.0554881
-0.0582384
-0.0648195
-0.0693218
-0.0746176
-0.0808535
-0.0855973
-0.0922271
-0.0982667
-0.103539
-0.111331
-0.117169
-0.123439
-0.131584
-0.138168
-0.144686
-0.153918
-0.160791
-0.168032
-0.1776
-0.185481
-0.193335
-0.20301
-0.212138
-0.220641
-0.229925
-0.240919
-0.249674
-0.258417
-0.271524
-0.280101
-0.288544
-0.30354
-0.311376
-0.320651
-0.336113
-0.343192
-0.354851
-0.369885
-0.372283
-0.396226
-0.397482
-0.412417
-0.426898
-0.428355
-0.457562
-0.445796
-0.488672
-0.464742
-0.517342
-0.487298
-0.541749
-0.515385
-0.55993
-0.55065
-0.571013
-0.592463
-0.57915
-0.634989
-0.604862
-0.64433
-0.655544
-0.63149
-0.704416
-0.67227
-0.669106
-0.733583
-0.710577
-0.682518
-0.795668
-0.731352
-0.719852
-0.802372
-0.772757
-0.792935
-0.724549
-0.917773
-0.756345
-0.809311
-0.742028
-0.905401
-0.817461
-0.75094
-0.782464
-0.708702
-0.942752
-0.724485
-0.703723
-0.634182
-0.675538
-0.614025
-0.803522
-0.623977
-0.528791
-0.468541
-0.442366
-0.425737
-0.414943
-0.425307
-0.40817
-0.531174
-0.319592
-0.262301
-0.198986
-0.171042
-0.145022
-0.128048
-0.113739
-0.102777
-0.0937251
-0.086411
-0.0807432
-0.0759158
-0.0718554
-0.0684815
-0.0655327
-0.0628391
-0.0599602
-0.0558554
-0.0503597
-0.0444412
-0.0312687
0.0024689
0.0300222
0.0571075
0.0804741
0.101376
0.119799
0.136318
0.151146
0.164572
0.176795
0.188004
0.198352
0.20797
0.216966
0.225433
0.23347
0.241176
0.248713
0.254956
0.265349
0.252914
0.366583
0.37615
0.409578
0.416149
0.431644
0.43874
0.448096
0.457538
0.466127
0.509585
0.509126
0.520091
0.518075
0.523181
0.520399
0.52205
0.514767
0.512976
0.501267
0.496248
0.46729
0.471285
0.446864
0.445317
0.399023
0.411365
0.382324
0.367659
0.339549
0.339248
0.319585
0.280214
0.29215
0.266305
0.236625
0.240615
0.221145
0.189361
0.20078
0.171655
0.157184
0.157856
0.12538
0.133973
0.109068
0.102202
0.0954048
0.0761814
0.0816022
0.0547318
0.0655605
0.0379431
0.0486704
0.0249329
0.0321507
0.0148532
0.0168338
0.0069736
0.00370976
0.00172043
-0.0090856
-0.00511753
-0.0140311
-0.0144171
-0.0159515
-0.021973
-0.0200436
-0.0223567
-0.0265456
-0.0237207
-0.025562
-0.0281228
-0.025448
-0.026242
-0.0274522
-0.0254271
-0.025
-0.0251428
-0.024032
-0.0222755
-0.0219111
-0.0214557
-0.0186255
-0.0181251
-0.0178631
-0.0145222
-0.0139583
-0.0133148
-0.0102139
-0.00941714
-0.00868623
-0.00548695
-0.00487454
-0.00334879
-0.000800755
-0.000307961
0.00246762
0.00373356
0.00498873
0.00795721
0.0076925
0.0120042
0.0110208
0.0156799
0.0146376
0.0192466
0.0182098
0.0228652
0.02186
0.0262923
0.025991
0.0291213
0.0303189
0.0318225
0.0345019
0.0351
0.0376374
0.0392066
0.0401104
0.0428619
0.0439468
0.0451698
0.0474649
0.0487586
0.0497281
0.0519294
0.0531204
0.054548
0.055523
0.0575016
0.0584804
0.0598171
0.0606931
0.0624479
0.0633168
0.0646165
0.0652442
0.0666516
0.067629
0.0686227
0.0695064
0.0702057
0.0711438
0.0720121
0.0727733
0.0734723
0.0741198
0.0746057
0.0751859
0.0757888
0.0762511
0.0766704
0.0770196
0.0772954
0.0775071
0.0776212
0.0778041