/*--------------------------------*- C++ -*----------------------------------*\
| =========                 |                                                 |
| \\      /  F ield         | OpenFOAM: The Open Source CFD Toolbox           |
|  \\    /   O peration     | Version:  v2012                                 |
|   \\  /    A nd           | Website:  www.openfoam.com                      |
|    \\/     M anipulation  |                                                 |
\*---------------------------------------------------------------------------*/
FoamFile
{
    version     2.0;
    format      ascii;
    class       surfaceScalarField;
    location    "853";
    object      phi;
}
// * * * * * * * * * * * * * * * * * * * * * * * * * * * * * * * * * * * * * //

dimensions      [0 3 -1 0 0 0 0];
oriented        oriented;


internalField   nonuniform List<scalar> 
206358
(
-3.30904e-06
-3.12014e-06
-2.54979e-06
-2.24802e-06
-1.99998e-06
-1.82235e-06
-1.68449e-06
-1.5763e-06
-1.48953e-06
-1.41888e-06
-1.36059e-06
-1.31208e-06
-1.27149e-06
-1.23797e-06
-1.20957e-06
-1.1845e-06
-1.16332e-06
-1.14543e-06
-1.13035e-06
-1.11772e-06
-1.10719e-06
-1.09847e-06
-1.0933e-06
-1.08779e-06
-1.08295e-06
-1.0794e-06
-1.07712e-06
-1.07608e-06
-1.07588e-06
-1.07765e-06
-1.08018e-06
-1.08168e-06
-1.08401e-06
-1.08722e-06
-1.09112e-06
-1.0965e-06
-1.10307e-06
-1.10783e-06
-1.11312e-06
-1.11933e-06
-1.12631e-06
-1.13614e-06
-1.14242e-06
-1.14992e-06
-1.1574e-06
-1.16845e-06
-1.17726e-06
-1.18562e-06
-1.19411e-06
-1.20634e-06
-1.21616e-06
-1.22533e-06
-1.23542e-06
-1.24877e-06
-1.2582e-06
-1.26812e-06
-1.28234e-06
-1.29272e-06
-1.30296e-06
-1.31812e-06
-1.3286e-06
-1.34025e-06
-1.3551e-06
-1.36584e-06
-1.3799e-06
-1.39277e-06
-1.40509e-06
-1.42035e-06
-1.43188e-06
-1.44864e-06
-1.4601e-06
-1.4765e-06
-1.48884e-06
-1.50528e-06
-1.51818e-06
-1.53513e-06
-1.5484e-06
-1.56559e-06
-1.57978e-06
-1.59616e-06
-1.61218e-06
-1.62786e-06
-1.64616e-06
-1.66141e-06
-1.67966e-06
-1.69683e-06
-1.71348e-06
-1.73449e-06
-1.75129e-06
-1.76937e-06
-1.79209e-06
-1.80992e-06
-1.82919e-06
-1.85098e-06
-1.86495e-06
-1.87972e-06
-1.89974e-06
-1.9177e-06
-1.93809e-06
-1.96512e-06
-1.99147e-06
-2.01446e-06
-2.04179e-06
-2.07264e-06
-2.0962e-06
-2.12338e-06
-2.15861e-06
-2.18212e-06
-2.20907e-06
-2.24811e-06
-2.27196e-06
-2.30087e-06
-2.34195e-06
-2.3672e-06
-2.40289e-06
-2.43952e-06
-2.46707e-06
-2.51886e-06
-2.5425e-06
-2.57918e-06
-2.6163e-06
-2.64502e-06
-2.69293e-06
-2.71414e-06
-2.77206e-06
-2.78257e-06
-2.84915e-06
-2.85164e-06
-2.92227e-06
-2.92286e-06
-2.98706e-06
-2.99898e-06
-3.03947e-06
-3.08621e-06
-3.08637e-06
-3.20793e-06
-3.17417e-06
-3.27062e-06
-3.32146e-06
-3.29456e-06
-3.55624e-06
-3.52157e-06
-3.53104e-06
-3.86377e-06
-3.80333e-06
-3.72597e-06
-4.24792e-06
-4.13766e-06
-4.05422e-06
-4.56704e-06
-4.70099e-06
-4.61832e-06
-4.52849e-06
-5.71974e-06
-5.36568e-06
-5.19831e-06
-5.08593e-06
-6.40749e-06
-6.49784e-06
-5.93114e-06
-5.84167e-06
-5.67264e-06
-8.09861e-06
-7.50341e-06
-6.85451e-06
-6.28899e-06
-6.38822e-06
-6.22943e-06
-9.20942e-06
-8.96135e-06
-7.65288e-06
-6.87333e-06
-6.5219e-06
-6.37942e-06
-6.27246e-06
-6.46669e-06
-6.62323e-06
-1.11689e-05
-9.62786e-06
-8.07054e-06
-7.1188e-06
-6.63683e-06
-6.29359e-06
-6.08041e-06
-5.93342e-06
-5.84433e-06
-5.79631e-06
-5.78731e-06
-5.80971e-06
-5.86305e-06
-5.94855e-06
-6.06955e-06
-6.23614e-06
-6.47918e-06
-6.87042e-06
-7.51849e-06
-8.64987e-06
-1.06115e-05
-1.47494e-05
-1.23133e-05
-1.05395e-05
-9.19567e-06
-8.14635e-06
-7.3187e-06
-6.64316e-06
-6.07985e-06
-5.6024e-06
-5.19239e-06
-4.8369e-06
-4.52644e-06
-4.25412e-06
-4.01509e-06
-3.80653e-06
-3.62803e-06
-3.48063e-06
-3.36104e-06
-3.27532e-06
-3.25866e-06
-3.48401e-06
-5.1658e-06
-3.47349e-06
-2.75421e-06
-2.23692e-06
-1.99304e-06
-1.74856e-06
-1.59035e-06
-1.483e-06
-1.50468e-06
-1.55826e-06
-9.39465e-07
-6.7665e-07
-4.57738e-07
-3.26149e-07
-1.55215e-07
9.48535e-09
2.01707e-07
3.19972e-07
4.70817e-07
6.19691e-07
8.11998e-07
7.80593e-07
9.01527e-07
1.00475e-06
1.21235e-06
1.11797e-06
1.23089e-06
1.34239e-06
1.43071e-06
1.40788e-06
1.52054e-06
1.65746e-06
1.59711e-06
1.69698e-06
1.80178e-06
1.77413e-06
1.84932e-06
1.93557e-06
1.90365e-06
1.97377e-06
2.00636e-06
2.01174e-06
2.07855e-06
2.07775e-06
2.12819e-06
2.15611e-06
2.17659e-06
2.21155e-06
2.22239e-06
2.26043e-06
2.26618e-06
2.29816e-06
2.30242e-06
2.32644e-06
2.3309e-06
2.3469e-06
2.35158e-06
2.35978e-06
2.36171e-06
2.36424e-06
2.372e-06
2.36384e-06
2.36626e-06
2.36047e-06
2.35409e-06
2.35341e-06
2.34006e-06
2.33342e-06
2.32914e-06
2.31262e-06
2.30396e-06
2.29723e-06
2.28051e-06
2.26973e-06
2.26151e-06
2.24614e-06
2.23351e-06
2.22447e-06
2.21146e-06
2.19778e-06
2.1888e-06
2.17834e-06
2.16404e-06
2.15554e-06
2.14724e-06
2.13323e-06
2.12482e-06
2.11723e-06
2.1041e-06
2.09602e-06
2.08834e-06
2.07608e-06
2.06843e-06
2.05959e-06
2.04966e-06
2.0424e-06
2.03168e-06
2.02381e-06
2.01479e-06
2.00568e-06
1.99789e-06
1.98724e-06
1.97983e-06
1.96885e-06
1.96123e-06
1.95024e-06
1.94273e-06
1.93112e-06
1.92448e-06
1.91297e-06
1.90769e-06
1.89794e-06
1.89142e-06
1.88397e-06
1.87495e-06
1.86981e-06
1.85944e-06
1.8531e-06
1.84761e-06
1.83615e-06
1.83109e-06
1.82489e-06
1.81261e-06
1.80571e-06
1.79908e-06
1.7869e-06
1.77913e-06
1.77254e-06
1.76486e-06
1.75375e-06
1.74784e-06
1.74198e-06
1.73539e-06
1.72553e-06
1.72072e-06
1.71571e-06
1.71247e-06
1.70398e-06
1.69957e-06
1.69604e-06
1.69391e-06
1.69244e-06
1.68828e-06
1.68566e-06
1.68512e-06
1.68547e-06
1.68698e-06
1.68872e-06
1.68678e-06
1.68489e-06
1.68587e-06
1.68779e-06
1.69117e-06
1.6968e-06
1.70554e-06
1.71616e-06
1.72647e-06
1.74216e-06
1.76017e-06
1.78087e-06
1.80466e-06
1.83197e-06
1.86333e-06
1.89944e-06
1.93909e-06
1.9847e-06
2.0388e-06
2.10187e-06
2.17584e-06
2.26335e-06
2.36833e-06
2.4956e-06
2.65373e-06
2.84691e-06
3.11533e-06
3.41439e-06
3.9764e-06
3.93874e-06
4.61878e-06
-1.77175e-06
-1.26468e-06
-1.11041e-06
-9.73735e-07
-8.41745e-07
-7.12868e-07
-6.00409e-07
-5.03769e-07
-4.19845e-07
-3.44809e-07
-2.75189e-07
-2.07732e-07
-1.39416e-07
-6.68203e-08
1.44573e-08
1.10456e-07
2.29727e-07
3.83254e-07
5.78925e-07
8.02214e-07
1.00535e-06
1.1417e-06
4.18549e-06
1.34716e-06
-8.76457e-07
-1.88894e-07
-8.71878e-06
-5.70349e-07
-8.94593e-06
-3.01772e-07
-8.10858e-06
-2.48038e-07
-7.35902e-06
-1.77629e-07
-6.75414e-06
-1.37868e-07
-6.24928e-06
-1.08184e-07
-5.84683e-06
-8.67753e-08
-5.51067e-06
-7.06452e-08
-5.22865e-06
-5.82911e-08
-4.98962e-06
-4.85087e-08
-4.7856e-06
-4.05964e-08
-4.61041e-06
-3.3511e-08
-4.4594e-06
-2.84093e-08
-4.32952e-06
-2.50688e-08
-4.21619e-06
-2.11767e-08
-4.11555e-06
-1.78908e-08
-4.02772e-06
-1.50795e-08
-3.95113e-06
-1.26316e-08
-3.88436e-06
-1.05318e-08
-3.82627e-06
-8.71784e-09
-3.77593e-06
-5.17193e-09
-3.73268e-06
-5.51006e-09
-3.69872e-06
-4.84097e-09
-3.66675e-06
-3.54931e-09
-3.63809e-06
-2.27882e-09
-3.61423e-06
-1.04022e-09
-3.59491e-06
-1.96121e-10
-3.57995e-06
1.77109e-09
-3.56883e-06
2.52627e-09
-3.5632e-06
1.50403e-09
-3.5601e-06
2.3285e-09
-3.55607e-06
3.20562e-09
-3.55483e-06
3.9075e-09
-3.55672e-06
5.37857e-09
-3.56143e-06
6.5694e-09
-3.57049e-06
4.75991e-09
-3.58226e-06
5.28545e-09
-3.59099e-06
6.21203e-09
-3.60149e-06
6.97958e-09
-3.61491e-06
9.83065e-09
-3.63157e-06
6.28387e-09
-3.65389e-06
7.49631e-09
-3.66958e-06
7.47663e-09
-3.6874e-06
1.10549e-08
-3.70756e-06
8.80433e-09
-3.73491e-06
8.36752e-09
-3.7582e-06
8.48675e-09
-3.77973e-06
1.22328e-08
-3.80365e-06
9.81627e-09
-3.8354e-06
9.17372e-09
-3.86234e-06
1.00847e-08
-3.88722e-06
1.33507e-08
-3.91614e-06
9.4343e-09
-3.95162e-06
9.92027e-09
-3.97809e-06
1.42215e-08
-4.00688e-06
1.03746e-08
-4.04563e-06
1.02364e-08
-4.07465e-06
1.51621e-08
-4.10504e-06
1.04813e-08
-4.14632e-06
1.16534e-08
-4.17657e-06
1.48464e-08
-4.21035e-06
1.07402e-08
-4.25123e-06
1.40633e-08
-4.28328e-06
1.28676e-08
-4.32264e-06
1.23203e-08
-4.35911e-06
1.52574e-08
-4.39555e-06
1.15315e-08
-4.43708e-06
1.6758e-08
-4.47284e-06
1.14642e-08
-4.51761e-06
1.63982e-08
-4.55373e-06
1.2336e-08
-4.5974e-06
1.64403e-08
-4.6358e-06
1.29065e-08
-4.67976e-06
1.69471e-08
-4.71962e-06
1.32676e-08
-4.76513e-06
1.71886e-08
-4.80563e-06
1.4199e-08
-4.85233e-06
1.63714e-08
-4.89441e-06
1.60212e-08
-4.93998e-06
1.56833e-08
-4.98576e-06
1.82961e-08
-5.03061e-06
1.52572e-08
-5.08167e-06
1.82425e-08
-5.12564e-06
1.71695e-08
-5.17667e-06
1.66522e-08
-5.22479e-06
2.10104e-08
-5.27257e-06
1.6798e-08
-5.33053e-06
1.80889e-08
-5.37784e-06
2.2713e-08
-5.42903e-06
1.78313e-08
-5.49145e-06
1.92745e-08
-5.54121e-06
2.17904e-08
-5.59562e-06
1.39692e-08
-5.6556e-06
1.47682e-08
-5.69583e-06
2.00179e-08
-5.73877e-06
1.79616e-08
-5.79452e-06
2.03938e-08
-5.84492e-06
2.70245e-08
-5.90172e-06
2.63542e-08
-5.97492e-06
2.29824e-08
-6.04612e-06
2.73345e-08
-6.10874e-06
3.08451e-08
-6.18262e-06
2.35642e-08
-6.26412e-06
2.71763e-08
-6.32742e-06
3.52385e-08
-6.4008e-06
2.35088e-08
-6.49171e-06
2.69422e-08
-6.55418e-06
3.90402e-08
-6.62665e-06
2.38587e-08
-6.72495e-06
2.89046e-08
-6.78803e-06
4.10762e-08
-6.86412e-06
2.52552e-08
-6.96547e-06
3.56941e-08
-7.03218e-06
3.66216e-08
-7.12213e-06
2.75517e-08
-7.21033e-06
5.17917e-08
-7.28683e-06
2.36388e-08
-7.40512e-06
3.6677e-08
-7.47006e-06
3.71207e-08
-7.55813e-06
2.87225e-08
-7.6448e-06
4.79066e-08
-7.7241e-06
2.12121e-08
-7.82361e-06
5.79259e-08
-7.89634e-06
1.05053e-08
-8.00528e-06
6.65857e-08
-8.06417e-06
2.48713e-09
-8.18146e-06
7.06271e-08
-8.22881e-06
5.90314e-10
-8.35026e-06
6.42014e-08
-8.3909e-06
1.19153e-08
-8.50554e-06
4.04949e-08
-8.55331e-06
4.67424e-08
-8.64198e-06
1.60149e-10
-8.72938e-06
1.21557e-07
-8.77564e-06
-3.37602e-08
-8.97985e-06
9.64497e-08
-8.96498e-06
5.08445e-08
-9.14263e-06
-2.69035e-08
-9.2335e-06
2.61676e-07
-9.26229e-06
-3.46672e-08
-9.69911e-06
9.4735e-09
-9.67063e-06
3.32732e-07
-9.76036e-06
-6.04482e-08
-1.03119e-05
-7.73543e-08
-1.02216e-05
5.21949e-07
-1.0252e-05
-1.1026e-07
-1.10478e-05
-8.34436e-08
-1.09226e-05
5.12822e-07
-1.08998e-05
1.33945e-07
-1.16832e-05
-8.26699e-08
-1.19498e-05
-8.98237e-08
-1.17631e-05
1.19125e-06
-1.19303e-05
-3.54062e-07
-1.3426e-05
-1.6737e-07
-1.31132e-05
-1.12373e-07
-1.27717e-05
1.32155e-06
-1.29421e-05
9.03534e-08
-1.4576e-05
-5.66699e-07
-1.47343e-05
-8.94739e-08
-1.40776e-05
-1.69027e-07
-1.38601e-05
2.42597e-06
-1.41716e-05
-5.95192e-07
-1.68272e-05
-6.48903e-07
-1.62828e-05
-5.65519e-07
-1.53967e-05
9.92288e-08
-1.48253e-05
-1.5879e-07
-1.48659e-05
2.97999e-06
-1.53195e-05
-2.48074e-07
-1.84403e-05
-1.30847e-06
-1.82078e-05
-7.79545e-07
-1.66517e-05
-3.51431e-07
-1.57133e-05
-1.42483e-07
-1.52899e-05
-1.06957e-07
-1.51642e-05
1.94231e-07
-1.51828e-05
1.56538e-07
-1.55949e-05
4.54566e-06
-1.65492e-05
-1.54103e-06
-2.08187e-05
-1.55732e-06
-1.93316e-05
-9.51743e-07
-1.7544e-05
-4.81967e-07
-1.6447e-05
-3.43244e-07
-1.58339e-05
-2.13178e-07
-1.54374e-05
-1.4699e-07
-1.5208e-05
-8.90869e-08
-1.50868e-05
-4.80214e-08
-1.50556e-05
-9.00174e-09
-1.50977e-05
2.24028e-08
-1.52098e-05
5.33378e-08
-1.53814e-05
8.54962e-08
-1.56184e-05
1.21e-07
-1.59308e-05
1.66599e-07
-1.63316e-05
2.43039e-07
-1.68535e-05
3.91234e-07
-1.7563e-05
6.48074e-07
-1.85691e-05
1.13138e-06
-2.00291e-05
1.96165e-06
-2.2085e-05
4.13786e-06
-2.39285e-05
-2.43608e-06
-2.59978e-05
-1.77378e-06
-2.43131e-05
-1.34385e-06
-2.26446e-05
-1.04931e-06
-2.08167e-05
-8.27657e-07
-1.92332e-05
-6.75535e-07
-1.78879e-05
-5.63308e-07
-1.67273e-05
-4.77459e-07
-1.57141e-05
-4.10008e-07
-1.48174e-05
-3.55487e-07
-1.40158e-05
-3.10459e-07
-1.32939e-05
-2.72322e-07
-1.26404e-05
-2.39034e-07
-1.20472e-05
-2.08554e-07
-1.15096e-05
-1.78506e-07
-1.10256e-05
-1.47401e-07
-1.05978e-05
-1.19588e-07
-1.02342e-05
-8.57178e-08
-9.94521e-06
-1.66611e-08
-9.75948e-06
2.25351e-07
-9.8037e-06
1.68179e-06
-1.01654e-05
-1.69231e-06
-1.16153e-05
-7.19279e-07
-9.16431e-06
-5.17294e-07
-7.73227e-06
-2.43873e-07
-6.68885e-06
-2.44483e-07
-5.98671e-06
-1.58206e-07
-5.37223e-06
-1.07358e-07
-4.89716e-06
2.16802e-08
-4.57e-06
5.35874e-08
-4.48164e-06
-6.18799e-07
-4.24111e-06
-2.62815e-07
-2.86254e-06
-2.18912e-07
-2.07642e-06
-1.31588e-07
-1.4745e-06
-1.70935e-07
-1.01807e-06
-1.647e-07
-5.1556e-07
-1.92221e-07
2.17404e-08
-1.18265e-07
5.82709e-07
-1.50846e-07
9.8189e-07
-1.48874e-07
1.41661e-06
-1.92307e-07
1.88638e-06
3.14048e-08
2.39879e-06
-1.20934e-07
2.45424e-06
-1.03222e-07
2.75354e-06
-2.07596e-07
3.11052e-06
9.4376e-08
3.62163e-06
-1.12917e-07
3.53418e-06
-1.11504e-07
3.77966e-06
-8.83208e-08
4.12267e-06
2.28339e-08
4.37794e-06
-1.12661e-07
4.39209e-06
-1.36919e-07
4.66998e-06
6.03455e-08
5.02481e-06
-9.98732e-08
4.97048e-06
-1.04792e-07
5.18752e-06
2.76442e-08
5.46682e-06
-7.51865e-08
5.45918e-06
-8.62536e-08
5.63081e-06
3.19198e-08
5.84776e-06
-7.01127e-08
5.82551e-06
-3.25944e-08
5.96956e-06
-5.37913e-09
6.07293e-06
-6.68143e-08
6.10838e-06
7.99295e-10
6.25303e-06
-5.04318e-08
6.28936e-06
-2.79215e-08
6.39539e-06
-2.04801e-08
6.48088e-06
-3.49666e-08
6.53685e-06
-1.0839e-08
6.61751e-06
-3.80395e-08
6.6627e-06
-5.7425e-09
6.73945e-06
-3.1981e-08
6.77671e-06
-4.26475e-09
6.83622e-06
-2.40213e-08
6.86742e-06
-4.46037e-09
6.91041e-06
-1.59924e-08
6.93639e-06
-4.68299e-09
6.96512e-06
-8.20288e-09
6.98487e-06
-1.93194e-09
7.00059e-06
-2.52233e-09
7.0071e-06
-7.76401e-09
7.01441e-06
8.16061e-09
7.02876e-06
-2.41635e-09
7.01473e-06
5.78889e-09
7.01552e-06
6.3764e-09
7.00325e-06
6.81473e-10
6.98735e-06
1.33511e-08
6.98297e-06
6.63769e-09
6.95232e-06
4.28348e-09
6.93421e-06
1.65121e-08
6.9218e-06
8.66051e-09
6.8828e-06
6.73712e-09
6.85937e-06
1.6718e-08
6.84129e-06
1.07815e-08
6.8008e-06
8.21966e-09
6.77229e-06
1.5365e-08
6.75066e-06
1.26323e-08
6.71252e-06
9.03926e-09
6.67978e-06
1.30062e-08
6.6561e-06
1.36885e-08
6.623e-06
8.97364e-09
6.58808e-06
1.04599e-08
6.56435e-06
1.42981e-08
6.53715e-06
8.50549e-09
6.50102e-06
8.29729e-09
6.47821e-06
1.40088e-08
6.4563e-06
8.41722e-09
6.42101e-06
7.59e-09
6.39819e-06
1.31284e-08
6.37816e-06
8.07896e-09
6.34485e-06
7.67975e-09
6.32297e-06
1.22609e-08
6.30267e-06
7.65035e-09
6.27161e-06
8.83307e-09
6.25065e-06
9.93475e-09
6.22773e-06
7.25965e-09
6.20226e-06
1.07185e-08
6.18241e-06
7.87165e-09
6.15524e-06
9.0173e-09
6.13409e-06
9.10975e-09
6.11044e-06
7.7888e-09
6.08743e-06
1.06584e-08
6.06568e-06
7.40501e-09
6.03988e-06
1.09852e-08
6.01819e-06
7.61421e-09
5.9921e-06
1.09871e-08
5.96957e-06
7.51227e-09
5.94368e-06
1.16114e-08
5.92129e-06
6.63852e-09
5.89408e-06
1.15146e-08
5.87382e-06
5.27922e-09
5.84696e-06
9.74506e-09
5.83031e-06
6.52135e-09
5.80704e-06
7.4549e-09
5.78894e-06
9.01927e-09
5.76988e-06
5.13359e-09
5.74761e-06
1.03772e-08
5.73286e-06
6.33226e-09
5.70786e-06
5.49743e-09
5.69104e-06
1.14551e-08
5.67691e-06
5.06403e-09
5.64975e-06
6.20011e-09
5.63559e-06
1.22762e-08
5.62084e-06
6.89928e-09
5.59155e-06
6.63569e-09
5.57362e-06
1.21794e-08
5.55782e-06
7.77006e-09
5.53005e-06
6.58432e-09
5.51037e-06
7.68004e-09
5.49584e-06
1.11174e-08
5.47813e-06
5.90802e-09
5.45403e-06
5.8539e-09
5.43992e-06
6.59519e-09
5.42888e-06
9.85807e-09
5.41517e-06
4.80896e-09
5.396e-06
5.00769e-09
5.38604e-06
3.24694e-09
5.37911e-06
8.4836e-09
5.37492e-06
4.41771e-09
5.36179e-06
3.52076e-09
5.35589e-06
2.13681e-09
5.35403e-06
1.46494e-09
5.35618e-06
4.1587e-09
5.36069e-06
2.62018e-09
5.36103e-06
5.38892e-10
5.36453e-06
-3.40083e-10
5.37375e-06
-1.51649e-09
5.38664e-06
-1.73846e-09
5.40358e-06
1.94219e-09
5.42159e-06
1.88372e-09
5.43306e-06
-9.79224e-10
5.44503e-06
-1.91938e-09
5.46392e-06
-3.38028e-09
5.48743e-06
-5.6283e-09
5.51613e-06
-8.73497e-09
5.55225e-06
-1.06212e-08
5.59835e-06
-1.03104e-08
5.65172e-06
-1.56882e-08
5.70881e-06
-1.80122e-08
5.77858e-06
-2.06981e-08
5.85741e-06
-2.37985e-08
5.94595e-06
-2.73081e-08
6.04505e-06
-3.13578e-08
6.15592e-06
-3.61107e-08
6.28001e-06
-3.96522e-08
6.41888e-06
-4.56073e-08
6.5716e-06
-5.4099e-08
6.74246e-06
-6.30706e-08
6.93635e-06
-7.3965e-08
7.15571e-06
-8.7514e-08
7.40464e-06
-1.04976e-07
7.68857e-06
-1.27273e-07
8.01434e-06
-1.58132e-07
8.39238e-06
-1.93177e-07
8.83124e-06
-2.6842e-07
9.36026e-06
-2.99064e-07
9.96849e-06
-5.62008e-07
1.06477e-05
3.76596e-08
1.13296e-05
-6.80039e-07
1.054e-05
6.39053e-06
7.84189e-06
-5.07073e-07
-2.27774e-06
-1.54273e-07
-3.02536e-06
-1.36672e-07
-2.66209e-06
-1.3199e-07
-2.3875e-06
-1.28878e-07
-2.05599e-06
-1.12458e-07
-1.76931e-06
-9.66399e-08
-1.52302e-06
-8.39239e-08
-1.31651e-06
-7.50368e-08
-1.13876e-06
-6.96197e-08
-9.80643e-07
-6.74569e-08
-8.33548e-07
-6.83156e-08
-6.90336e-07
-7.25961e-08
-5.44229e-07
-8.12775e-08
-3.87308e-07
-9.59989e-08
-2.09546e-07
-1.19271e-07
3.2164e-09
-1.53526e-07
2.69828e-07
-1.95672e-07
6.15259e-07
-2.23289e-07
1.0604e-06
-2.03141e-07
1.62126e-06
-1.36347e-07
2.1349e-06
-2.05457e-07
2.56837e-06
5.53265e-06
7.22911e-06
1.5715e-06
6.13217e-07
3.82582e-08
-1.29329e-05
-1.4077e-06
-1.42038e-05
-1.05133e-06
-1.35705e-05
-8.52923e-07
-1.27039e-05
-6.82488e-07
-1.18692e-05
-5.40316e-07
-1.11228e-05
-4.4434e-07
-1.04938e-05
-3.68804e-07
-9.95187e-06
-3.09673e-07
-9.48414e-06
-2.62309e-07
-9.07711e-06
-2.23696e-07
-8.72118e-06
-1.91608e-07
-8.40847e-06
-1.63391e-07
-8.13278e-06
-1.41735e-07
-7.88933e-06
-1.2571e-07
-7.6726e-06
-1.09007e-07
-7.47809e-06
-9.44824e-08
-7.30478e-06
-8.18472e-08
-7.15041e-06
-7.073e-08
-7.01292e-06
-6.08712e-08
-6.89059e-06
-5.19648e-08
-6.78211e-06
-3.91261e-08
-6.68647e-06
-3.74809e-08
-6.60456e-06
-3.35063e-08
-6.52887e-06
-2.7404e-08
-6.46021e-06
-2.15979e-08
-6.40033e-06
-1.60064e-08
-6.34862e-06
-1.13114e-08
-6.30475e-06
-3.85981e-09
-6.26838e-06
-5.7654e-10
-6.2405e-06
-2.52544e-09
-6.21712e-06
1.09076e-09
-6.19465e-06
5.09533e-09
-6.17723e-06
8.61757e-09
-6.16536e-06
1.44328e-08
-6.15875e-06
1.83467e-08
-6.15897e-06
1.34872e-08
-6.16292e-06
1.57806e-08
-6.1645e-06
1.96336e-08
-6.16925e-06
2.36461e-08
-6.17882e-06
3.21415e-08
-6.19419e-06
2.19833e-08
-6.21602e-06
2.53165e-08
-6.23119e-06
2.76295e-08
-6.2487e-06
3.84112e-08
-6.27158e-06
3.20868e-08
-6.30273e-06
2.99047e-08
-6.32993e-06
3.24079e-08
-6.35441e-06
4.39818e-08
-6.38395e-06
3.6756e-08
-6.4227e-06
3.40519e-08
-6.45623e-06
3.90014e-08
-6.48672e-06
4.88372e-08
-6.52406e-06
3.59033e-08
-6.56882e-06
3.87092e-08
-6.6025e-06
5.29682e-08
-6.64003e-06
3.93954e-08
-6.69003e-06
4.06214e-08
-6.7274e-06
5.64431e-08
-6.76775e-06
4.07307e-08
-6.82119e-06
4.54386e-08
-6.86104e-06
5.57276e-08
-6.90571e-06
4.2792e-08
-6.95893e-06
5.34237e-08
-7.00195e-06
4.93285e-08
-7.05343e-06
4.87641e-08
-7.10145e-06
5.67905e-08
-7.1503e-06
4.72884e-08
-7.20396e-06
6.15313e-08
-7.25297e-06
4.75798e-08
-7.3102e-06
6.00743e-08
-7.3601e-06
5.07276e-08
-7.41567e-06
6.0401e-08
-7.46846e-06
5.27654e-08
-7.52446e-06
6.24609e-08
-7.57902e-06
5.37696e-08
-7.6371e-06
6.38913e-08
-7.69221e-06
5.62762e-08
-7.75209e-06
6.19419e-08
-7.80855e-06
6.17949e-08
-7.86761e-06
6.05338e-08
-7.92788e-06
6.93562e-08
-7.98677e-06
5.92359e-08
-8.05307e-06
6.9271e-08
-8.11105e-06
6.52907e-08
-8.17721e-06
6.44272e-08
-8.23979e-06
7.89745e-08
-8.30238e-06
6.41062e-08
-8.37696e-06
6.92788e-08
-8.43856e-06
8.51326e-08
-8.505e-06
6.75877e-08
-8.58508e-06
7.36844e-08
-8.64951e-06
8.17731e-08
-8.72025e-06
5.42026e-08
-8.80114e-06
5.77057e-08
-8.86076e-06
7.57679e-08
-8.92431e-06
6.83652e-08
-9.00396e-06
7.71845e-08
-9.07462e-06
1.00232e-07
-9.1493e-06
9.75513e-08
-9.24199e-06
8.56065e-08
-9.33216e-06
1.01214e-07
-9.41152e-06
1.12341e-07
-9.50469e-06
8.68674e-08
-9.60664e-06
1.00555e-07
-9.68641e-06
1.26143e-07
-9.77881e-06
8.59874e-08
-9.89135e-06
9.9412e-08
-9.96998e-06
1.37338e-07
-1.00611e-05
8.69337e-08
-1.01815e-05
1.04999e-07
-1.02608e-05
1.42425e-07
-1.03553e-05
9.19637e-08
-1.04781e-05
1.25644e-07
-1.05617e-05
1.24823e-07
-1.06715e-05
1.04047e-07
-1.07772e-05
1.70086e-07
-1.08755e-05
8.85748e-08
-1.10143e-05
1.24748e-07
-1.10984e-05
1.23794e-07
-1.12045e-05
1.0802e-07
-1.13086e-05
1.47415e-07
-1.14118e-05
9.39415e-08
-1.15235e-05
1.66873e-07
-1.16268e-05
6.93954e-08
-1.17416e-05
1.83868e-07
-1.18354e-05
4.98376e-08
-1.19538e-05
1.9208e-07
-1.20379e-05
4.12338e-08
-1.21593e-05
1.78844e-07
-1.22333e-05
5.96813e-08
-1.23527e-05
1.2916e-07
-1.24234e-05
1.34143e-07
-1.25294e-05
4.64208e-08
-1.26244e-05
3.25769e-07
-1.27085e-05
-4.86329e-08
-1.29198e-05
2.74102e-07
-1.29373e-05
1.41713e-07
-1.31365e-05
1.89191e-09
-1.32356e-05
6.98496e-07
-1.33226e-05
-6.31517e-08
-1.37945e-05
9.92012e-08
-1.37866e-05
8.84286e-07
-1.3938e-05
-1.50784e-07
-1.45504e-05
-4.69073e-08
-1.44605e-05
1.31768e-06
-1.46445e-05
-2.35392e-07
-1.55231e-05
-1.06291e-07
-1.54235e-05
1.2962e-06
-1.54777e-05
4.00634e-07
-1.63408e-05
-2.69362e-07
-1.66961e-05
7.73167e-08
-1.64276e-05
2.68698e-06
-1.6874e-05
-6.66933e-07
-1.83637e-05
-5.08872e-07
-1.81713e-05
5.80674e-08
-1.76965e-05
2.95545e-06
-1.8177e-05
2.48697e-07
-1.98738e-05
-1.22345e-06
-2.00768e-05
-3.06992e-07
-1.94372e-05
1.42526e-07
-1.91322e-05
5.08158e-06
-1.99681e-05
-1.13962e-06
-2.25337e-05
-1.53501e-06
-2.20868e-05
-1.13692e-06
-2.10618e-05
1.3986e-07
-2.05996e-05
2.94808e-07
-2.06215e-05
6.10075e-06
-2.17269e-05
-4.80567e-07
-2.4685e-05
-2.86459e-06
-2.44294e-05
-1.71793e-06
-2.27875e-05
-7.74821e-07
-2.18274e-05
-2.68177e-07
-2.14187e-05
-8.83626e-08
-2.13621e-05
6.06318e-07
-2.16093e-05
1.11085e-06
-2.23424e-05
8.81516e-06
-2.40422e-05
-3.02809e-06
-2.74919e-05
-3.34494e-06
-2.60575e-05
-2.04879e-06
-2.4332e-05
-1.09502e-06
-2.32802e-05
-7.39725e-07
-2.26601e-05
-4.42614e-07
-2.23152e-05
-2.68147e-07
-2.21585e-05
-1.20366e-07
-2.21444e-05
-5.86332e-09
-2.22476e-05
1.0303e-07
-2.24571e-05
1.94097e-07
-2.27708e-05
2.90336e-07
-2.31808e-05
3.97866e-07
-2.37077e-05
5.21761e-07
-2.43766e-05
6.88569e-07
-2.52181e-05
9.52517e-07
-2.62887e-05
1.3973e-06
-2.76553e-05
2.10811e-06
-2.93667e-05
3.18729e-06
-3.13654e-05
3.80509e-06
-3.33596e-05
6.20715e-06
-3.40086e-05
-4.12077e-06
-3.3785e-05
-3.44229e-06
-3.29751e-05
-3.17173e-06
-3.19233e-05
-2.63276e-06
-2.99323e-05
-2.173e-06
-2.8014e-05
-1.8361e-06
-2.62524e-05
-1.57652e-06
-2.46819e-05
-1.37423e-06
-2.32824e-05
-1.21154e-06
-2.20271e-05
-1.07739e-06
-2.08941e-05
-9.64005e-07
-1.98661e-05
-8.65454e-07
-1.893e-05
-7.76707e-07
-1.80762e-05
-6.92506e-07
-1.72983e-05
-6.06316e-07
-1.65934e-05
-5.11017e-07
-1.59633e-05
-4.08568e-07
-1.54188e-05
-2.71442e-07
-1.49872e-05
2.75524e-08
-1.47166e-05
5.87055e-07
-1.47423e-05
3.1317e-06
-1.50294e-05
-4.14331e-06
-1.53601e-05
-2.15132e-06
-1.29062e-05
-1.56072e-06
-1.12285e-05
-9.46009e-07
-1.00069e-05
-8.5897e-07
-9.03025e-06
-6.33271e-07
-8.2243e-06
-4.34516e-07
-7.54049e-06
-6.66865e-08
-7.03285e-06
-1.86938e-07
-6.73263e-06
-1.99737e-06
-6.05183e-06
-1.04894e-06
-4.38802e-06
-8.20835e-07
-3.25882e-06
-5.88012e-07
-2.39837e-06
-6.73448e-07
-1.6433e-06
-7.02001e-07
-8.64489e-07
-7.5319e-07
2.12431e-08
-5.17446e-07
9.00902e-07
-5.85563e-07
1.59374e-06
-6.18645e-07
2.28645e-06
-7.04719e-07
3.06475e-06
-2.4046e-08
3.84955e-06
-4.20232e-07
4.1165e-06
-4.60206e-07
4.56063e-06
-7.18708e-07
5.16523e-06
1.81835e-07
5.88395e-06
-3.58403e-07
5.92739e-06
-4.54509e-07
6.23222e-06
-3.43592e-07
6.74822e-06
8.68341e-09
7.11351e-06
-3.9055e-07
7.18577e-06
-4.9175e-07
7.53906e-06
1.14679e-07
7.99428e-06
-3.16918e-07
7.98584e-06
-3.84092e-07
8.23319e-06
3.52846e-08
8.58758e-06
-2.46821e-07
8.60999e-06
-3.03197e-07
8.81057e-06
5.41701e-08
9.07359e-06
-2.14163e-07
9.07959e-06
-1.35971e-07
9.24713e-06
-4.08256e-08
9.39668e-06
-2.11461e-07
9.45284e-06
-3.55371e-08
9.61126e-06
-1.56456e-07
9.6773e-06
-1.13413e-07
9.79171e-06
-7.64542e-08
9.90335e-06
-1.15619e-07
9.9725e-06
-5.60326e-08
1.00631e-05
-1.14791e-07
1.0129e-05
-4.29993e-08
1.02078e-05
-9.14885e-08
1.02677e-05
-3.54718e-08
1.03242e-05
-6.70081e-08
1.03753e-05
-3.04399e-08
1.04141e-05
-4.47266e-08
1.0455e-05
-2.44345e-08
1.04807e-05
-2.39176e-08
1.05093e-05
-8.44592e-09
1.05241e-05
-9.8297e-09
1.05315e-05
-2.21156e-08
1.0541e-05
2.2198e-08
1.05536e-05
-3.21342e-09
1.05401e-05
1.80639e-08
1.05369e-05
2.22756e-08
1.05224e-05
5.05446e-09
1.0503e-05
4.40062e-08
1.04952e-05
2.47445e-08
1.0459e-05
1.66937e-08
1.04361e-05
5.55099e-08
1.04193e-05
3.20949e-08
1.03731e-05
2.48154e-08
1.03438e-05
5.72146e-08
1.03209e-05
3.92882e-08
1.02724e-05
2.98463e-08
1.02371e-05
5.35114e-08
1.02103e-05
4.53709e-08
1.01641e-05
3.27174e-08
1.01241e-05
4.61025e-08
1.0095e-05
4.86131e-08
1.00545e-05
3.26981e-08
1.00121e-05
3.76588e-08
9.98291e-06
5.04341e-08
9.94931e-06
3.13179e-08
9.90544e-06
3.02043e-08
9.87725e-06
4.93019e-08
9.84987e-06
3.12305e-08
9.80694e-06
2.76236e-08
9.77844e-06
4.64407e-08
9.75338e-06
2.99584e-08
9.71266e-06
2.79803e-08
9.68535e-06
4.33179e-08
9.65996e-06
2.86117e-08
9.62215e-06
3.17522e-08
9.5958e-06
3.54046e-08
9.56755e-06
2.71089e-08
9.53657e-06
3.78841e-08
9.51158e-06
2.90236e-08
9.47869e-06
3.26673e-08
9.45252e-06
3.21271e-08
9.42341e-06
2.95319e-08
9.39598e-06
3.6465e-08
9.36844e-06
2.90903e-08
9.33843e-06
3.70763e-08
9.3105e-06
3.01402e-08
9.2806e-06
3.68802e-08
9.25155e-06
2.99007e-08
9.22215e-06
3.88197e-08
9.1933e-06
2.69043e-08
9.16258e-06
3.83763e-08
9.13602e-06
2.1923e-08
9.10397e-06
3.30171e-08
9.08043e-06
2.46227e-08
9.05162e-06
2.65138e-08
9.02751e-06
3.12875e-08
9.0031e-06
1.9881e-08
8.97516e-06
3.53804e-08
8.95539e-06
2.31529e-08
8.92435e-06
1.96276e-08
8.90276e-06
3.86135e-08
8.88518e-06
1.92261e-08
8.85224e-06
2.09487e-08
8.83414e-06
4.15638e-08
8.81768e-06
2.48374e-08
8.78469e-06
2.24273e-08
8.76552e-06
3.99563e-08
8.75009e-06
2.74447e-08
8.72106e-06
2.11152e-08
8.70067e-06
2.53879e-08
8.68855e-06
3.52215e-08
8.6721e-06
2.00161e-08
8.64935e-06
1.68978e-08
8.63758e-06
2.03067e-08
8.63204e-06
2.9024e-08
8.62264e-06
1.47665e-08
8.60849e-06
1.19435e-08
8.60411e-06
7.43178e-09
8.6065e-06
2.16138e-08
8.61151e-06
1.03219e-08
8.60829e-06
5.38285e-09
8.61265e-06
-2.30372e-11
8.624e-06
-3.04502e-09
8.64143e-06
3.82323e-09
8.66286e-06
-8.76992e-10
8.68118e-06
-8.68133e-09
8.7036e-06
-1.32273e-08
8.73444e-06
-1.84646e-08
8.77174e-06
-1.97417e-08
8.81585e-06
-9.52999e-09
8.86408e-06
-1.00831e-08
8.90918e-06
-1.98727e-08
8.95738e-06
-2.54271e-08
9.01564e-06
-3.20868e-08
9.08269e-06
-4.17465e-08
9.1589e-06
-5.48358e-08
9.24627e-06
-6.39938e-08
9.34723e-06
-6.73917e-08
9.45901e-06
-8.54611e-08
9.57921e-06
-9.68467e-08
9.71637e-06
-1.09234e-07
9.86897e-06
-1.22904e-07
1.00379e-05
-1.38174e-07
1.02244e-05
-1.55445e-07
1.04301e-05
-1.74982e-07
1.06572e-05
-1.92377e-07
1.09078e-05
-2.16466e-07
1.11825e-05
-2.47982e-07
1.14858e-05
-2.82432e-07
1.18232e-05
-3.22893e-07
1.21992e-05
-3.71445e-07
1.26192e-05
-4.30748e-07
1.30904e-05
-5.05311e-07
1.36207e-05
-5.96992e-07
1.42227e-05
-7.22203e-07
1.49041e-05
-8.76647e-07
1.56885e-05
-9.78321e-07
1.65265e-05
-1.24387e-06
1.7291e-05
8.27222e-07
1.76668e-05
2.01812e-06
1.55287e-05
1.65102e-05
9.945e-06
2.40551e-07
-8.05562e-07
-5.17544e-07
-3.17252e-06
-4.11265e-07
-2.81854e-06
-4.63497e-07
-2.47513e-06
-4.1556e-07
-2.14516e-06
-3.58745e-07
-1.88826e-06
-3.03147e-07
-1.68627e-06
-2.61682e-07
-1.52796e-06
-2.3315e-07
-1.39937e-06
-2.16714e-07
-1.28992e-06
-2.10668e-07
-1.19109e-06
-2.14423e-07
-1.096e-06
-2.29517e-07
-9.97674e-07
-2.59039e-07
-8.88347e-07
-3.08761e-07
-7.58319e-07
-3.85883e-07
-5.9387e-07
-4.98957e-07
-3.74966e-07
-6.40809e-07
-7.18095e-08
-7.84154e-07
3.52237e-07
-7.1678e-07
9.40989e-07
-5.69814e-07
1.65003e-06
7.91412e-07
2.28387e-06
1.43333e-05
9.20172e-06
-5.00306e-08
4.3444e-06
1.3092e-06
-1.58275e-05
-2.04104e-06
-1.81508e-05
-1.9179e-06
-1.80319e-05
-1.68767e-06
-1.73418e-05
-1.42885e-06
-1.64114e-05
-1.16939e-06
-1.5501e-05
-9.86228e-07
-1.46799e-05
-8.36528e-07
-1.3956e-05
-7.16701e-07
-1.33203e-05
-6.18242e-07
-1.2759e-05
-5.36405e-07
-1.22618e-05
-4.67295e-07
-1.18195e-05
-4.06846e-07
-1.14249e-05
-3.58469e-07
-1.10718e-05
-3.20213e-07
-1.07544e-05
-2.82319e-07
-1.04678e-05
-2.48855e-07
-1.02097e-05
-2.19335e-07
-9.97728e-06
-1.93061e-07
-9.76794e-06
-1.69346e-07
-9.57952e-06
-1.47611e-07
-9.41035e-06
-1.21034e-07
-9.25896e-06
-1.13174e-07
-9.1247e-06
-1.02167e-07
-9.001e-06
-8.72824e-08
-8.88816e-06
-7.33026e-08
-8.7876e-06
-5.98842e-08
-8.69843e-06
-4.76729e-08
-8.62015e-06
-3.17415e-08
-8.55261e-06
-2.39574e-08
-8.49586e-06
-2.49946e-08
-8.44549e-06
-1.63365e-08
-8.39828e-06
-6.77301e-09
-8.35818e-06
2.01341e-09
-8.32577e-06
1.46446e-08
-8.30074e-06
2.23066e-08
-8.28438e-06
1.50638e-08
-8.27255e-06
2.05328e-08
-8.25966e-06
2.92024e-08
-8.25131e-06
3.90118e-08
-8.24932e-06
5.39734e-08
-8.25508e-06
3.71575e-08
-8.26749e-06
4.28234e-08
-8.27429e-06
5.05054e-08
-8.28369e-06
6.95673e-08
-8.30088e-06
5.9281e-08
-8.32655e-06
5.43889e-08
-8.34902e-06
6.19512e-08
-8.36851e-06
8.27298e-08
-8.39511e-06
7.02876e-08
-8.43127e-06
6.45381e-08
-8.46265e-06
7.63368e-08
-8.49066e-06
9.36038e-08
-8.52741e-06
6.95827e-08
-8.57168e-06
7.62415e-08
-8.60453e-06
1.02961e-07
-8.64226e-06
7.67693e-08
-8.69338e-06
8.09701e-08
-8.73103e-06
1.09887e-07
-8.77277e-06
8.05733e-08
-8.82822e-06
9.01107e-08
-8.8696e-06
1.08952e-07
-8.9164e-06
8.58129e-08
-8.97226e-06
1.04897e-07
-9.01802e-06
9.73505e-08
-9.07233e-06
9.76137e-08
-9.12336e-06
1.10454e-07
-9.17585e-06
9.62991e-08
-9.23259e-06
1.1876e-07
-9.28625e-06
9.74752e-08
-9.34666e-06
1.15652e-07
-9.40182e-06
1.03513e-07
-9.46051e-06
1.16404e-07
-9.519e-06
1.07329e-07
-9.57842e-06
1.20537e-07
-9.63897e-06
1.08879e-07
-9.7009e-06
1.23773e-07
-9.76209e-06
1.12734e-07
-9.82636e-06
1.21001e-07
-9.88879e-06
1.22063e-07
-9.95279e-06
1.19422e-07
-1.00189e-05
1.35659e-07
-1.00835e-05
1.17222e-07
-1.01558e-05
1.35425e-07
-1.02198e-05
1.2787e-07
-1.02921e-05
1.27016e-07
-1.03608e-05
1.53556e-07
-1.04299e-05
1.25707e-07
-1.05114e-05
1.35722e-07
-1.05795e-05
1.65209e-07
-1.06527e-05
1.32021e-07
-1.07405e-05
1.44426e-07
-1.08118e-05
1.62663e-07
-1.08904e-05
1.13819e-07
-1.0984e-05
1.21259e-07
-1.10581e-05
1.55413e-07
-1.1137e-05
1.39029e-07
-1.12337e-05
1.51864e-07
-1.13181e-05
1.92925e-07
-1.14024e-05
1.87715e-07
-1.1504e-05
1.64972e-07
-1.1603e-05
1.94381e-07
-1.16902e-05
2.14288e-07
-1.17924e-05
1.66639e-07
-1.19039e-05
1.92952e-07
-1.19918e-05
2.38687e-07
-1.20935e-05
1.64621e-07
-1.22164e-05
1.90523e-07
-1.23035e-05
2.57774e-07
-1.24042e-05
1.6621e-07
-1.25355e-05
1.99505e-07
-1.26236e-05
2.65259e-07
-1.27275e-05
1.75472e-07
-1.28611e-05
2.35441e-07
-1.29538e-05
2.30604e-07