/*--------------------------------*- C++ -*----------------------------------*\
| =========                 |                                                 |
| \\      /  F ield         | OpenFOAM: The Open Source CFD Toolbox           |
|  \\    /   O peration     | Version:  v2012                                 |
|   \\  /    A nd           | Website:  www.openfoam.com                      |
|    \\/     M anipulation  |                                                 |
\*---------------------------------------------------------------------------*/
FoamFile
{
    version     2.0;
    format      ascii;
    class       volScalarField;
    location    "853";
    object      ReThetat;
}
// * * * * * * * * * * * * * * * * * * * * * * * * * * * * * * * * * * * * * //

dimensions      [0 0 0 0 0 0 0];


internalField   nonuniform List<scalar> 
103390
(
316.618
316.453
316.466
316.6
316.78
317.003
317.268
317.573
317.922
318.316
318.754
319.239
319.772
320.353
320.984
321.664
322.395
323.176
324.006
324.885
325.812
326.785
327.802
328.861
329.96
331.098
332.271
333.475
334.708
335.964
337.241
338.535
339.844
341.162
342.485
343.808
345.128
346.442
347.748
349.04
350.314
351.566
352.794
354
355.177
356.318
357.424
358.497
359.533
360.524
361.469
362.373
363.231
364.031
364.777
365.477
366.116
366.687
367.219
367.695
368.107
368.491
368.824
369.088
369.302
369.432
369.462
369.391
369.194
368.904
368.521
368.068
367.568
366.996
366.407
365.753
365.097
364.392
363.71
362.983
362.266
361.447
360.604
359.707
358.866
358.092
357.366
356.691
356.012
355.431
354.927
354.451
354.162
354.026
354.005
354.32
355.056
356.226
357.964
360.248
362.913
365.944
369.318
372.859
376.4
379.821
382.92
385.667
388.351
391.188
394.38
398.291
402.912
407.998
413.431
418.76
423.546
427.593
430.791
433.194
434.944
436.047
436.952
437.946
439.12
440.623
442.251
444.265
446.422
448.981
451.669
454.698
457.919
461.505
465.434
469.775
474.586
479.889
485.723
492.084
499.013
506.311
513.958
521.7
529.026
535.859
541.735
546.028
548.722
549.676
549.038
547.272
544.849
542.417
540.491
538.903
537.763
537.137
536.86
536.656
536.502
536.406
536.283
536.13
535.794
535.406
535.003
534.576
534.102
533.696
533.205
532.697
532.241
531.835
531.473
531.144
530.843
530.56
530.389
530.164
529.97
529.82
529.71
529.632
529.581
529.553
529.544
529.549
529.567
529.594
529.628
529.667
529.71
529.755
529.801
529.846
529.891
529.933
529.972
530.009
530.052
530.097
530.144
530.194
530.245
530.297
530.351
530.407
530.463
530.521
530.581
530.643
530.706
530.773
530.843
530.918
531
531.09
531.192
531.308
531.418
531.574
531.75
531.95
532.174
532.427
532.709
533.025
533.371
533.74
534.125
534.515
534.909
535.302
535.693
536.141
536.456
536.689
536.833
536.861
536.761
536.506
536.224
535.841
535.158
534.615
533.951
532.972
531.463
529.645
527.368
524.139
520.32
515.98
510.732
504.759
498.425
491.749
485.062
478.586
472.556
467.258
462.728
459.091
456.179
453.812
451.821
449.869
448.125
446.366
444.983
443.753
442.999
442.419
442.139
441.899
441.741
441.672
441.521
441.36
440.878
440.064
438.936
437.534
436.083
434.564
432.73
430.521
427.923
424.95
421.785
418.621
415.472
412.28
409.015
405.658
402.2
398.676
395.081
391.454
388.008
384.909
382.223
380.112
378.62
377.618
377.037
376.731
376.518
376.435
376.461
376.558
376.755
376.977
377.22
377.453
377.609
377.712
377.699
377.645
377.498
377.328
377.097
376.878
376.625
376.387
376.11
375.832
375.538
375.23
374.91
374.55
374.157
373.714
373.216
372.675
372.07
371.409
370.707
369.946
369.134
368.291
367.402
366.476
365.525
364.547
363.541
362.519
361.485
360.435
359.371
358.3
357.223
356.138
355.044
353.944
352.844
351.74
350.632
349.523
348.414
347.31
346.21
345.117
344.031
342.956
341.894
340.849
339.822
338.816
337.832
336.875
335.946
335.046
334.18
333.347
332.55
331.789
331.066
330.381
329.736
329.129
328.562
328.034
327.546
327.096
326.684
326.31
325.973
325.672
325.407
325.176
324.98
324.818
324.697
324.613
324.627
324.817
329.163
338.763
342.341
344.77
346.773
348.489
349.916
351.038
351.841
352.32
352.469
352.285
351.766
350.907
349.701
348.126
346.188
343.951
341.403
338.628
335.733
332.72
328.998
320.227
316.442
316.257
316.256
316.394
316.58
316.808
317.077
317.387
317.74
318.137
318.578
319.065
319.601
320.184
320.817
321.499
322.231
323.014
323.846
324.726
325.654
326.629
327.647
328.707
329.808
330.947
332.121
333.327
334.561
335.819
337.097
338.392
339.702
341.022
342.345
343.67
344.991
346.305
347.612
348.906
350.181
351.434
352.663
353.87
355.047
356.19
357.296
358.37
359.407
360.399
361.344
362.249
363.108
363.909
364.655
365.355
365.995
366.567
367.1
367.576
367.989
368.373
368.707
368.971
369.186
369.315
369.346
369.276
369.079
368.79
368.408
367.955
367.455
366.884
366.296
365.642
364.986
364.282
363.6
362.874
362.157
361.338
360.496
359.6
358.759
357.985
357.26
356.585
355.906
355.326
354.822
354.346
354.058
353.923
353.902
354.217
354.954
356.123
357.861
360.144
362.809
365.84
369.213
372.754
376.295
379.714
382.813
385.56
388.244
391.081
394.273
398.183
402.802
407.888
413.32
418.648
423.434
427.482
430.68
433.083
434.835
435.94
436.846
437.842
439.017
440.523
442.153
444.17
446.328
448.891
451.581
454.614
457.837
461.425
465.356
469.698
474.512
479.814
485.65
492.013
498.94
506.241
513.888
521.632
528.965
535.806
541.692
546.002
548.714
549.689
549.07
547.319
544.905
542.48
540.554
538.966
537.822
537.194
536.918
536.716
536.56
536.466
536.345
536.198
535.864
535.474
535.073
534.647
534.177
533.775
533.283
532.77
532.31
531.901
531.536
531.205
530.904
530.619
530.451
530.22
530.019
529.863
529.747
529.664
529.609
529.577
529.564
529.566
529.58
529.604
529.636
529.673
529.713
529.756
529.8
529.844
529.886
529.925
529.963
530
530.044
530.089
530.137
530.187
530.238
530.291
530.346
530.402
530.459
530.517
530.577
530.638
530.702
530.768
530.838
530.912
530.993
531.082
531.182
531.294
531.405
531.562
531.739
531.938
532.162
532.414
532.696
533.01
533.356
533.727
534.115
534.505
534.9
535.293
535.684
536.131
536.447
536.68
536.823
536.851
536.749
536.494
536.212
535.828
535.143
534.601
533.936
532.955
531.444
529.624
527.343
524.107
520.286
515.94
510.684
504.706
498.364
491.68
484.987
478.505
472.469
467.168
462.634
458.995
456.081
453.712
451.72
449.766
448.023
446.263
444.881
443.651
442.898
442.318
442.039
441.799
441.642
441.574
441.423
441.263
440.782
439.969
438.841
437.44
435.99
434.472
432.638
430.43
427.833
424.86
421.696
418.532
415.383
412.192
408.928
405.571
402.112
398.589
394.995
391.368
387.921
384.822
382.136
380.025
378.533
377.531
376.95
376.643
376.43
376.346
376.371
376.468
376.665
376.887
377.129
377.362
377.518
377.621
377.608
377.553
377.406
377.236
377.004
376.785
376.533
376.294
376.017
375.738
375.444
375.137
374.816
374.456
374.062
373.619
373.121
372.58
371.975
371.313
370.611
369.849
369.037
368.194
367.304
366.377
365.426
364.448
363.441
362.419
361.384
360.333
359.269
358.196
357.119
356.033
354.937
353.837
352.736
351.63
350.522
349.411
348.301
347.195
346.094
344.999
343.912
342.835
341.771
340.724
339.696
338.687
337.702
336.743
335.812
334.911
334.042
333.207
332.407
331.644
330.919
330.232
329.584
328.974
328.405
327.874
327.383
326.93
326.515
326.138
325.797
325.492
325.223
324.988
324.787
324.622
324.496
324.412
324.434
324.647
328.498
338.4
341.895
344.374
346.438
348.216
349.693
350.854
351.687
352.188
352.352
352.176
351.659
350.796
349.581
348
346.025
343.741
341.115
338.235
335.226
332.144
328.542
319.553
315.936
315.689
315.654
315.783
315.97
316.203
316.481
316.798
317.158
317.562
318.01
318.504
319.046
319.636
320.275
320.964
321.703
322.492
323.331
324.217
325.152
326.133
327.157
328.224
329.331
330.477
331.657
332.869
334.109
335.373
336.657
337.958
339.274
340.599
341.928
343.258
344.584
345.904
347.216
348.514
349.794
351.052
352.285
353.496
354.678
355.824
356.935
358.012
359.053
360.048
360.996
361.904
362.766
363.57
364.319
365.022
365.665
366.239
366.774
367.253
367.668
368.054
368.39
368.657
368.874
369.005
369.038
368.97
368.775
368.488
368.108
367.657
367.16
366.591
366.005
365.353
364.699
363.996
363.317
362.592
361.877
361.06
360.22
359.325
358.487
357.715
356.991
356.318
355.641
355.062
354.56
354.086
353.799
353.666
353.645
353.961
354.698
355.867
357.604
359.888
362.553
365.583
368.956
372.496
376.036
379.456
382.556
385.303
387.987
390.825
394.015
397.924
402.543
407.627
413.057
418.386
423.173
427.222
430.423
432.829
434.586
435.694
436.605
437.604
438.784
440.295
441.93
443.954
446.118
448.689
451.384
454.425
457.653
461.247
465.183
469.528
474.346
479.65
485.491
491.854
498.783
506.09
513.738
521.492
528.84
535.695
541.604
545.949
548.699
549.714
549.133
547.411
545.016
542.6
540.678
539.091
537.94
537.312
537.042
536.839
536.681
536.586
536.475
536.342
536.007
535.613
535.211
534.787
534.329
533.937
533.439
532.915
532.447
532.032
531.662
531.327
531.026
530.751
530.583
530.334
530.12
529.953
529.826
529.734
529.67
529.63
529.61
529.605
529.613
529.631
529.657
529.689
529.726
529.765
529.805
529.844
529.883
529.919
529.955
529.993
530.035
530.08
530.128
530.178
530.229
530.283
530.337
530.393
530.451
530.509
530.569
530.63
530.693
530.758
530.826
530.899
530.977
531.063
531.158
531.264
531.379
531.535
531.71
531.908
532.13
532.38
532.66
532.972
533.316
533.696
534.086
534.478
534.874
535.269
535.661
536.106
536.422
536.655
536.797
536.822
536.716
536.456
536.174
535.789
535.095
534.559
533.892
532.905
531.383
529.557
527.267
524.011
520.178
515.821
510.545
504.549
498.194
491.49
484.784
478.288
472.242
466.936
462.397
458.755
455.839
453.467
451.474
449.518
447.776
446.016
444.638
443.409
442.659
442.08
441.803
441.565
441.409
441.343
441.194
441.036
440.556
439.744
438.619
437.219
435.771
434.254
432.421
430.214
427.618
424.646
421.483
418.32
415.172
411.981
408.718
405.361
401.903
398.38
394.785
391.158
387.712
384.613
381.927
379.816
378.323
377.321
376.738
376.431
376.216
376.131
376.155
376.251
376.447
376.667
376.909
377.14
377.295
377.397
377.383
377.328
377.179
377.009
376.777
376.557
376.304
376.064
375.786
375.507
375.212
374.904
374.582
374.222
373.827
373.383
372.884
372.342
371.735
371.072
370.369
369.606
368.793
367.948
367.056
366.127
365.175
364.194
363.185
362.161
361.124
360.07
359.003
357.928
356.847
355.758
354.659
353.555
352.45
351.341
350.228
349.113
347.998
346.888
345.782
344.681
343.589
342.506
341.436
340.383
339.348
338.333
337.341
336.375
335.436
334.528
333.652
332.811
332.005
331.235
330.503
329.809
329.154
328.538
327.962
327.425
326.927
326.468
326.047
325.664
325.317
325.007
324.732
324.493
324.289
324.123
324.002
323.93
323.988
324.255
327.526
336.729
340.467
343.247
345.556
347.514
349.123
350.383
351.293
351.852
352.059
351.913
351.411
350.546
349.313
347.698
345.689
343.304
340.501
337.362
333.974
330.439
326.702
318.59
315.337
314.977
314.88
314.99
315.165
315.4
315.682
316.006
316.373
316.783
317.237
317.739
318.288
318.885
319.532
320.229
320.976
321.774
322.621
323.517
324.461
325.451
326.485
327.561
328.678
329.834
331.024
332.246
333.496
334.77
336.063
337.374
338.7
340.034
341.372
342.711
344.046
345.374
346.694
348.001
349.288
350.553
351.793
353.011
354.2
355.352
356.469
357.552
358.598
359.599
360.552
361.465
362.332
363.141
363.894
364.601
365.248
365.827
366.365
366.848
367.266
367.656
367.995
368.264
368.484
368.619
368.655
368.59
368.399
368.115
367.738
367.29
366.795
366.229
365.645
364.996
364.345
363.645
362.968
362.245
361.533
360.718
359.881
358.989
358.152
357.383
356.661
355.99
355.315
354.738
354.239
353.766
353.481
353.351
353.33
353.647
354.383
355.552
357.289
359.573
362.238
365.267
368.639
372.179
375.718
379.138
382.238
384.986
387.67
390.509
393.698
397.605
402.223
407.305
412.733
418.063
422.85
426.902
430.106
432.515
434.277
435.39
436.305
437.31
438.494
440.013
441.654
443.687
445.858
448.439
451.142
454.193
457.428
461.03
464.972
469.323
474.148
479.456
485.304
491.67
498.604
505.919
513.574
521.34
528.704
535.577
541.512
545.893
548.683
549.742
549.202
547.515
545.141
542.741
540.83
539.243
538.088
537.465
537.205
537.001
536.841
536.745
536.65
536.533
536.19
535.791
535.388
534.967
534.53
534.15
533.636
533.097
532.619
532.196
531.821
531.483
531.187
530.931
530.749
530.474
530.246
530.066
529.927
529.824
529.75
529.701
529.672
529.659
529.66
529.672
529.692
529.718
529.749
529.783
529.818
529.853
529.887
529.921
529.956
529.994
530.035
530.079
530.126
530.175
530.226
530.279
530.334
530.39
530.447
530.505
530.564
530.624
530.686
530.75
530.817
530.888
530.963
531.045
531.135
531.237
531.355
531.51
531.683
531.878
532.098
532.346
532.624
532.933
533.278
533.665
534.056
534.449
534.846
535.242
535.637
536.079
536.395
536.627
536.767
536.788
536.675
536.407
536.126
535.737
535.032
534.502
533.833
532.836
531.3
529.467
527.163
523.883
520.036
515.665
510.365
504.348
497.976
491.251
484.527
478.014
471.957
466.647
462.103
458.457
455.539
453.164
451.17
449.211
447.471
445.711
444.337
443.11
442.363
441.786
441.511
441.275
441.121
441.058
440.91
440.755
440.277
439.467
438.344
436.945
435.5
433.985
432.153
429.947
427.352
424.381
421.22
418.059
414.911
411.721
408.458
405.102
401.644
398.121
394.526
390.899
387.454
384.355
381.669
379.558
378.065
377.061
376.477
376.168
375.952
375.866
375.889
375.983
376.178
376.396
376.637
376.867
377.02
377.121
377.106
377.051
376.901
376.73
376.497
376.276
376.022
375.782
375.503
375.222
374.927
374.618
374.295
373.933
373.538
373.092
372.592
372.049
371.441
370.776
370.072
369.307
368.492
367.645
366.751
365.82
364.865
363.881
362.87
361.842
360.802
359.745
358.674
357.595
356.511
355.417
354.314
353.205
352.095
350.98
349.862
348.741
347.62
346.503
345.39
344.283
343.183
342.092
341.015
339.953
338.909
337.884
336.881
335.905
334.956
334.037
333.151
332.301
331.486
330.707
329.966
329.263
328.599
327.975
327.39
326.845
326.339
325.873
325.444
325.054
324.701
324.385
324.106
323.863
323.658
323.495
323.385
323.331
323.445
323.812
326.669
334.161
338.873
342.178
344.765
346.889
348.608
349.947
350.917
351.522
351.766
351.649
351.168
350.315
349.081
347.453
345.415
342.956
340.05
336.697
332.892
328.537
323.657
317.824
314.683
314.193
314.011
314.088
314.244
314.475
314.76
315.09
315.464
315.883
316.348
316.859
317.418
318.026
318.683
319.391
320.15
320.959
321.818
322.725
323.681
324.683
325.729
326.817
327.946
329.114
330.316
331.55
332.811
334.097
335.402
336.724
338.06
339.405
340.754
342.103
343.447
344.785
346.115
347.43
348.726
349.999
351.246
352.472
353.668
354.827
355.95
357.039
358.092
359.099
360.057
360.975
361.847
362.66
363.418
364.129
364.781
365.363
365.905
366.392
366.813
367.206
367.549
367.821
368.044
368.182
368.22
368.158
367.97
367.689
367.315
366.869
366.378
365.813
365.233
364.586
363.938
363.239
362.565
361.844
361.135
360.322
359.488
358.597
357.763
356.995
356.275
355.606
354.933
354.358
353.861
353.39
353.107
352.979
352.959
353.276
354.013
355.181
356.917
359.202
361.866
364.894
368.264
371.803
375.341
378.76
381.86
384.607
387.291
390.13
393.319
397.224
401.84
406.919
412.346
417.674
422.462
426.514
429.721
432.133
433.9
435.018
435.938
436.949
438.139
439.668
441.316
443.361
445.541
448.135
450.848
453.912
457.158
460.771
464.724
469.083
473.918
479.235
485.092
491.469
498.411
505.738
513.403
521.185
528.568
535.462
541.422
545.839
548.67
549.773
549.276
547.626
545.278
542.902
541.007
539.425
538.271
537.66
537.413
537.206
537.044
536.951
536.877
536.772
536.418
536.012
535.609
535.194
534.782
534.406
533.868
533.314
532.826
532.395
532.014
531.678
531.389
531.144
530.932
530.634
530.392
530.199
530.048
529.933
529.849
529.79
529.752
529.732
529.725
529.729
529.742
529.762
529.787
529.815
529.845
529.876
529.907
529.938
529.971
530.008
530.048
530.09
530.135
530.183
530.233
530.285
530.339
530.394
530.45
530.507
530.565
530.624
530.685
530.747
530.812
530.88
530.953
531.032
531.118
531.216
531.337
531.489
531.659
531.852
532.07
532.316
532.591
532.898
533.243
533.635
534.028
534.421
534.819
535.216
535.612
536.052
536.368
536.599
536.738
536.755
536.635
536.36
536.078
535.685
534.965
534.442
533.769
532.761
531.209
529.367
527.047
523.74
519.878
515.49
510.164
504.123
497.73
490.98
484.236
477.701
471.63
466.31
461.758
458.108
455.183
452.803
450.806
448.844
447.105
445.345
443.974
442.748
442.005
441.429
441.157
440.922
440.771
440.711
440.565
440.414
439.938
439.131
438.01
436.614
435.172
433.66
431.83
429.625
427.032
424.062
420.904
417.745
414.598
411.409
408.147
404.791
401.334
397.812
394.217
390.591
387.146
384.047
381.36
379.249
377.755
376.75
376.165
375.855
375.636
375.549
375.57
375.663
375.856
376.073
376.312
376.542
376.694
376.794
376.777
376.721
376.57
376.399
376.164
375.944
375.688
375.447
375.167
374.886
374.589
374.279
373.956
373.593
373.196
372.75
372.248
371.704
371.094
370.428
369.722
368.956
368.138
367.29
366.394
365.46
364.502
363.516
362.501
361.471
360.427
359.367
358.292
357.209
356.121
355.023
353.914
352.8
351.685
350.564
349.44
348.312
347.184
346.06
344.94
343.824
342.716
341.617
340.53
339.459
338.404
337.368
336.354
335.365
334.404
333.474
332.577
331.715
330.888
330.098
329.346
328.632
327.956
327.321
326.724
326.168
325.652
325.174
324.736
324.336
323.974
323.65
323.363
323.116
322.91
322.752
322.659
322.632
322.825
323.324
325.95
331.765
337.224
341.191
344.058
346.326
348.131
349.526
350.537
351.175
351.447
351.354
350.893
350.057
348.837
347.214
345.17
342.676
339.686
336.128
331.853
326.581
321.338
317.105
313.968
313.332
313.034
313.065
313.19
313.409
313.691
314.026
314.409
314.839
315.316
315.84
316.413
317.035
317.707
318.429
319.203
320.026
320.9
321.822
322.793
323.809
324.87
325.972
327.116
328.298
329.514
330.762
332.037
333.336
334.653
335.988
337.337
338.694
340.055
341.415
342.769
344.117
345.457
346.782
348.087
349.368
350.624
351.858
353.061
354.228
355.357
356.453
357.512
358.524
359.488
360.411
361.289
362.106
362.868
363.584
364.24
364.825
365.372
365.862
366.286
366.682
367.028
367.302
367.528
367.669
367.71
367.651
367.466
367.187
366.816
366.373
365.885
365.323
364.745
364.1
363.455
362.758
362.086
361.367
360.661
359.85
359.018
358.129
357.297
356.532
355.814
355.147
354.476
353.903
353.408
352.939
352.658
352.532
352.513
352.831
353.57
354.737
356.474
358.758
361.421
364.447
367.816
371.353
374.889
378.306
381.405
384.151
386.836
389.675
392.862
396.766
401.38
406.456
411.88
417.206
421.993
426.045
429.253
431.668
433.44
434.564
435.49
436.51
437.707
439.247
440.905
442.966
445.158
447.768
450.495
453.574
456.835
460.462
464.43
468.802
473.652
478.983
484.854
491.247
498.202
505.546
513.228
521.029
528.433
535.35
541.336
545.789
548.659
549.807
549.354
547.744
545.429
543.086
541.213
539.64
538.495
537.901
537.669
537.46
537.298
537.209
537.159
537.063
536.694
536.281
535.879
535.471
535.085
534.701
534.136
533.567
533.068
532.629
532.244
531.908
531.623
531.376
531.127
530.811
530.557
530.352
530.189
530.063
529.968
529.899
529.852
529.823
529.808
529.805
529.811
529.825
529.843
529.865
529.89
529.916
529.944
529.972
530.003
530.037
530.075
530.115
530.158
530.204
530.251
530.301
530.353
530.407
530.461
530.517
530.574
530.631
530.69
530.75
530.813
530.878
530.948
531.023
531.105
531.201
531.322
531.471
531.638
531.828
532.044
532.287
532.559
532.864
533.21
533.605
533.998
534.391
534.789
535.187
535.584
536.021
536.338
536.568
536.705
536.72
536.593
536.312
536.03
535.632
534.898
534.38
533.702
532.682
531.111
529.259
526.921
523.583
519.704
515.296
509.941
503.872
497.452
490.673
483.902
477.34
471.25
465.917
461.352
457.692
454.757
452.37
450.368
448.402
446.663
444.902
443.535
442.309
441.57
440.994
440.726
440.492
440.344
440.288
440.144
439.997
439.524
438.721
437.604
436.212
434.773
433.264
431.436
429.234
426.644
423.677
420.521
417.365
414.22
411.033
407.772
404.417
400.96
397.439
393.845
390.219
386.774
383.676
380.989
378.877
377.382
376.375
375.788
375.475
375.255
375.165
375.185
375.276
375.468
375.683
375.921
376.149
376.299
376.398
376.38
376.324
376.172
376
375.765
375.544
375.287
375.046
374.764
374.483
374.185
373.874
373.549
373.185
372.787
372.339
371.836
371.29
370.679
370.011
369.304
368.535
367.716
366.866
365.967
365.031
364.071
363.082
362.064
361.03
359.984
358.92
357.84
356.753
355.66
354.557
353.444
352.324
351.202
350.076
348.944
347.809
346.674
345.542
344.413
343.289
342.172
341.063
339.966
338.883
337.817
336.769
335.743
334.741
333.767
332.823
331.912
331.037
330.196
329.393
328.626
327.898
327.209
326.559
325.948
325.378
324.847
324.356
323.905
323.492
323.119
322.784
322.49
322.238
322.034
321.886
321.817
321.824
322.129
322.778
325.269
329.869
335.446
340.077
343.29
345.721
347.61
349.055
350.098
350.762
351.056
350.984
350.545
349.732
348.532
346.929
344.894
342.384
339.324
335.558
330.786
324.73
319.585
316.358
313.186
312.386
311.937
311.906
311.988
312.186
312.46
312.797
313.189
313.631
314.122
314.663
315.252
315.892
316.581
317.322
318.113
318.955
319.847
320.787
321.775
322.809
323.887
325.007
326.168
327.366
328.599
329.862
331.153
332.466
333.799
335.148
336.511
337.881
339.254
340.626
341.992
343.352
344.702
346.038
347.352
348.642
349.907
351.149
352.361
353.535
354.671
355.773
356.839
357.857
358.826
359.755
360.638
361.46
362.226
362.947
363.608
364.197
364.747
365.241
365.668
366.068
366.417
366.694
366.922
367.066
367.109
367.054
366.871
366.595
366.227
365.787
365.301
364.742
364.167
363.525
362.882
362.188
361.519
360.802
360.097
359.289
358.46
357.574
356.744
355.981
355.265
354.601
353.932
353.361
352.869
352.401
352.122
351.998
351.982
352.302
353.042
354.211
355.947
358.231
360.893
363.918
367.284
370.819
374.351
377.766
380.864
383.609
386.294
389.133
392.319
396.221
400.833
405.906
411.327
416.65
421.434
425.485
428.694
431.112
432.889
434.02
434.953
435.983
437.19
438.745
440.415
442.494
444.701
447.331
450.077
453.175
456.456
460.1
464.089
468.477
473.347
478.697
484.588
491.003
497.976
505.343
513.048
520.87
528.3
535.242
541.255
545.742
548.652
549.843
549.437
547.871
545.595
543.293
541.449
539.891
538.761
538.192
537.976
537.765
537.607
537.524
537.499
537.405
537.02
536.601
536.2
535.8
535.434
535.032
534.44
533.856
533.347
532.9
532.509
532.171
531.883
531.621
531.337
531.007
530.742
530.526
530.351
530.213
530.108
530.029
529.972
529.934
529.911
529.9
529.899
529.906
529.918
529.935
529.954
529.976
530
530.025
530.051
530.082
530.118
530.156
530.196
530.238
530.283
530.33
530.379
530.43
530.482
530.535
530.59
530.645
530.701
530.759
530.819
530.881
530.947
531.018
531.097
531.189
531.309
531.455
531.618
531.805
532.017
532.257
532.527
532.83
533.176
533.571
533.965
534.358
534.756
535.153
535.551
535.986
536.303
536.532
536.668
536.68
536.547
536.26
535.978
535.577
534.829
534.314
533.632
532.597
531.006
529.143
526.785
523.413
519.515
515.082
509.693
503.593
497.141
490.325
483.521
476.925
470.81
465.458
460.874
457.201
454.251
451.854
449.845
447.873
446.135
444.372
443.009
441.782
441.047
440.472
440.207
439.975
439.831
439.778
439.638
439.496
439.027
438.229
437.117
435.729
434.295
432.79
430.965
428.767
426.18
423.217
420.064
416.911
413.769
410.583
407.324
403.97
400.514
396.994
393.401
389.776
386.332
383.234
380.546
378.433
376.936
375.926
375.337
375.022
374.799
374.707
374.725
374.814
375.004
375.217
375.453
375.679
375.828
375.925
375.906
375.849
375.696
375.524
375.288
375.066
374.809
374.567
374.284
374.002
373.703
373.391
373.065
372.699
372.299
371.85
371.345
370.798
370.185
369.515
368.806
368.036
367.214
366.362
365.461
364.522
363.559
362.568
361.547
360.509
359.459
358.392
357.308
356.216
355.118
354.01
352.891
351.765
350.637
349.504
348.365
347.222
346.078
344.937
343.799
342.665
341.537
340.418
339.309
338.214
337.135
336.074
335.034
334.018
333.029
332.07
331.144
330.252
329.396
328.576
327.793
327.048
326.342
325.674
325.047
324.459
323.911
323.404
322.936
322.508
322.121
321.775
321.472
321.217
321.019
320.886
320.851
320.92
321.356
322.165
324.57
328.322
333.71
338.808
342.398
345.022
347.004
348.497
349.571
350.258
350.572
350.521
350.105
349.317
348.145
346.569
344.553
342.039
338.916
334.967
329.83
323.422
318.251
315.54
312.336
311.358
310.738
310.604
310.628
310.795
311.054
311.39
311.79
312.245
312.753
313.312
313.921
314.581
315.292
316.054
316.867
317.73
318.643
319.604
320.613
321.668
322.766
323.906
325.086
326.304
327.555
328.836
330.144
331.474
332.823
334.188
335.567
336.952
338.339
339.724
341.103
342.475
343.837
345.184
346.509
347.809
349.083
350.334
351.555
352.736
353.88
354.989
356.062
357.086
358.061
358.996
359.885
360.712
361.482
362.208
362.873
363.466
364.021
364.519
364.949
365.352
365.704
365.984
366.215
366.361
366.408
366.355
366.176
365.903
365.538
365.101
364.619
364.062
363.491
362.851
362.211
361.52
360.853
360.139
359.437
358.631
357.805
356.922
356.095
355.334
354.621
353.959
353.292
352.724
352.235
351.769
351.493
351.372
351.358
351.682
352.424
353.594
355.331
357.615
360.275
363.298
366.662
370.193
373.722
377.134
380.23
382.973
385.658
388.497
391.683
395.585
400.194
405.263
410.68
415.998
420.781
424.829
428.038
430.459
432.241
433.38
434.321
435.365
436.582
438.155
439.841
441.941
444.168
446.822
449.589
452.712
456.016
459.683
463.697
468.106
473.001
478.376
484.293
490.735
497.733
505.128
512.862
520.71
528.169
535.138
541.177
545.7
548.648
549.883
549.526
548.007
545.777
543.525
541.716
540.179
539.073
538.535
538.337
538.125
537.972
537.898
537.897
537.799
537.398
536.974
536.573
536.179
535.824
535.396
534.779
534.183
533.663
533.206
532.808
532.464
532.164
531.881
531.566
531.224
530.95
530.722
530.535
530.386
530.27
530.18
530.114
530.067
530.036
530.018
530.009
530.009
530.016
530.027
530.041
530.058
530.077
530.097
530.119
530.146
530.178
530.214
530.25
530.288
530.328
530.371
530.416
530.464
530.513
530.563
530.614
530.666
530.719
530.774
530.83
530.889
530.951
531.018
531.092
531.181
531.298
531.44
531.599
531.782
531.99
532.227
532.494
532.794
533.139
533.535
533.928
534.32
534.717
535.114
535.511
535.944
536.261
536.489
536.624
536.633
536.495
536.201
535.921
535.516
534.756
534.244
533.557
532.508
530.895
529.02
526.639
523.229
519.309
514.849
509.42
503.285
496.793
489.933
483.09
476.452
470.306
464.928
460.32
456.629
453.659
451.25
449.23
447.252
445.513
443.748
442.389
441.162
440.43
439.855
439.594
439.363
439.224
439.175
439.04
438.903
438.439
437.648
436.542
435.16
433.731
432.231
430.41
428.216
425.634
422.675
419.527
416.377
413.238
410.054
406.797
403.445
399.991
396.472
392.88
389.256
385.813
382.715
380.026
377.911
376.412
375.399
374.806
374.488
374.262
374.167
374.183
374.269
374.456
374.668
374.901
375.125
375.273
375.369
375.349
375.29
375.137
374.964
374.727
374.505
374.246
374.004
373.72
373.437
373.136
372.823
372.495
372.128
371.727
371.275
370.769
370.22
369.606
368.933
368.223
367.45
366.626
365.772
364.869
363.926
362.961
361.967
360.942
359.901
358.848
357.776
356.687
355.591
354.488
353.374
352.248
351.116
349.981
348.84
347.693
346.541
345.388
344.237
343.089
341.944
340.805
339.673
338.551
337.443
336.35
335.274
334.219
333.187
332.181
331.205
330.261
329.351
328.476
327.637
326.835
326.07
325.343
324.655
324.007
323.399
322.831
322.304
321.817
321.372
320.969
320.61
320.299
320.043
319.855
319.748
319.755
319.92
320.506
321.477
323.816
327.012
332.132
337.455
341.375
344.204
346.292
347.84
348.943
349.65
349.983
349.953
349.561
348.801
347.662
346.117
344.125
341.612
338.445
334.386
329.113
322.674
317.279
314.643
311.42
310.249
309.437
309.159
309.11
309.23
309.465
309.794
310.199
310.668
311.194
311.774
312.406
313.09
313.825
314.612
315.45
316.338
317.276
318.262
319.294
320.373
321.494
322.657
323.86
325.099
326.372
327.673
329
330.35
331.717
333.1
334.495
335.896
337.299
338.699
340.092
341.477
342.852
344.211
345.547
346.858
348.142
349.404
350.633
351.823
352.974
354.092
355.172
356.203
357.184
358.125
359.02
359.852
360.628
361.359
362.029
362.626
363.185
363.687
364.121
364.528
364.883
365.166
365.401
365.549
365.599
365.55
365.373
365.104
364.743
364.309
363.83
363.277
362.709
362.072
361.436
360.747
360.084
359.372
358.674
357.871
357.048
356.168
355.344
354.587
353.876
353.218
352.553
351.988
351.501
351.039
350.766
350.648
350.637
350.965
351.71
352.882
354.621
356.904
359.563
362.584
365.945
369.472
372.996
376.405
379.497
382.239
384.925
387.764
390.949
394.852
399.459
404.523
409.936
415.249
420.027
424.073
427.281
429.705
431.492
432.641
433.591
434.65
435.881
437.474
439.179
441.305
443.555
446.237
449.031
452.182
455.514
459.209
463.252
467.687
472.614
478.018
483.967
490.444
497.472
504.901
512.669
520.547
528.039
535.038
541.104
545.661
548.648
549.927
549.62
548.153
545.976
543.783
542.016
540.508
539.433
538.931
538.751
538.542
538.396
538.332
538.353
538.246
537.828
537.4
536.999
536.607
536.251
535.793
535.154
534.546
534.015
533.547
533.138
532.783
532.467
532.159
531.816
531.464
531.181
530.942
530.744
530.584
530.456
530.357
530.281
530.225
530.185
530.159
530.144
530.138
530.138
530.144
530.153
530.165
530.178
530.193
530.209
530.231
530.259
530.29
530.322
530.355
530.39
530.428
530.468
530.51
530.555
530.6
530.648
530.696
530.745
530.795
530.847
530.902
530.959
531.021
531.091
531.176
531.289
531.426
531.58
531.758
531.963
532.195
532.458
532.755
533.099
533.494
533.886
534.276
534.672
535.068
535.465
535.894
536.211
536.438
536.572
536.579
536.435
536.135
535.857
535.45
534.679
534.169
533.476
532.414
530.779
528.89
526.484
523.032
519.088
514.597
509.122
502.946
496.408
489.495
482.606
475.918
469.733
464.323
459.685
455.971
452.977
450.55
448.519
446.532
444.791
443.025
441.669
440.441
439.714
439.138
438.881
438.653
438.518
438.474
438.344
438.214
437.756
436.973
435.874
434.5
433.077
431.582
429.767
427.577
425.001
422.048
418.904
415.759
412.623
409.442
406.188
402.838
399.385
395.868
392.278
388.655
385.213
382.115
379.425
377.307
375.805
374.788
374.19
373.869
373.639
373.541
373.554
373.638
373.822
374.031
374.262
374.484
374.629