/*--------------------------------*- C++ -*----------------------------------*\
| =========                 |                                                 |
| \\      /  F ield         | OpenFOAM: The Open Source CFD Toolbox           |
|  \\    /   O peration     | Version:  v2012                                 |
|   \\  /    A nd           | Website:  www.openfoam.com                      |
|    \\/     M anipulation  |                                                 |
\*---------------------------------------------------------------------------*/
FoamFile
{
    version     2.0;
    format      ascii;
    class       volVectorField;
    location    "853";
    object      U;
}
// * * * * * * * * * * * * * * * * * * * * * * * * * * * * * * * * * * * * * //

dimensions      [0 1 -1 0 0 0 0];


internalField   nonuniform List<vector> 
103390
(
(0.172854 -0.0655544 8.90875e-24)
(0.100235 -0.0128021 7.52464e-23)
(0.104385 -0.0164922 -1.15202e-22)
(0.0809261 -0.0116595 -2.44499e-22)
(0.0761612 -0.0111289 -2.57598e-22)
(0.0680059 -0.0097128 -8.26581e-24)
(0.0635655 -0.00905063 -2.48642e-22)
(0.0595717 -0.00843041 0)
(0.0565722 -0.00798392 0)
(0.0541254 -0.00762126 7.28996e-24)
(0.0521514 -0.0073325 -6.84126e-24)
(0.0505278 -0.00709653 4.18693e-22)
(0.0491895 -0.0069035 0)
(0.0481 -0.00674603 0)
(0.0472184 -0.00661208 1.40258e-21)
(0.0464568 -0.00649491 6.63304e-22)
(0.0458046 -0.00640181 -9.6287e-24)
(0.0452794 -0.00632736 -5.67471e-22)
(0.0448502 -0.00626655 -4.20836e-24)
(0.0445082 -0.00621817 -1.00402e-21)
(0.0442407 -0.00618033 -3.64471e-24)
(0.044025 -0.00615043 -8.66839e-22)
(0.0439238 -0.0061349 8.08388e-22)
(0.0438883 -0.00611102 -7.51304e-22)
(0.043806 -0.00609195 2.71305e-24)
(0.0437759 -0.00608767 1.29357e-21)
(0.0437854 -0.00608888 1.196e-21)
(0.0438424 -0.00609661 2.15369e-24)
(0.0439252 -0.00610831 -3.00283e-26)
(0.0440645 -0.00612754 1.89376e-21)
(0.0442777 -0.00614099 -2.37349e-26)
(0.0444529 -0.00614639 -1.57907e-24)
(0.0446043 -0.00616711 0)
(0.0448134 -0.00619601 1.36972e-21)
(0.0450312 -0.00622612 1.21073e-24)
(0.0452951 -0.00626274 2.31115e-21)
(0.0456407 -0.0062937 1.02475e-24)
(0.0459492 -0.0063085 -9.60442e-25)
(0.0461894 -0.00634135 8.59569e-25)
(0.046511 -0.0063854 -8.05948e-25)
(0.0468033 -0.00642581 -2.97283e-21)
(0.047261 -0.00647806 -1.3204e-24)
(0.0476516 -0.00648797 1.20247e-24)
(0.0479588 -0.00652928 -2.23518e-21)
(0.0483046 -0.00657674 2.03178e-21)
(0.0487519 -0.00663745 1.82161e-21)
(0.0492455 -0.00666007 -6.60224e-21)
(0.0496218 -0.00669047 2.96283e-21)
(0.0499726 -0.00673796 0)
(0.0504747 -0.00680562 0)
(0.0510073 -0.00682417 2.10665e-21)
(0.0514061 -0.00685586 0)
(0.0518017 -0.00690876 -3.28717e-21)
(0.0523722 -0.00697216 -2.81683e-21)
(0.0529306 -0.00697353 -2.47053e-21)
(0.0532283 -0.00701267 -2.12661e-21)
(0.0538524 -0.00709518 1.75469e-21)
(0.054447 -0.00708675 -1.47454e-21)
(0.0547563 -0.00711927 -2.44393e-21)
(0.0554152 -0.00720519 3.62837e-21)
(0.0560217 -0.00718323 0)
(0.056357 -0.00722182 9.84315e-22)
(0.0570772 -0.00728874 5.08613e-22)
(0.0575898 -0.00726663 2.28733e-22)
(0.0580751 -0.007328 7.59701e-22)
(0.058793 -0.00733536 -1.99054e-21)
(0.0591684 -0.00734327 0)
(0.0599429 -0.00740126 0)
(0.0603728 -0.00736249 -4.50289e-26)
(0.0610957 -0.00744522 -3.30811e-21)
(0.0616568 -0.00738047 -3.33104e-21)
(0.0622638 -0.0074532 -6.49037e-26)
(0.0629048 -0.0073969 8.2918e-21)
(0.0634973 -0.0074531 -1.96147e-20)
(0.0641656 -0.00739624 -9.73366e-21)
(0.0647662 -0.00744651 0)
(0.0654857 -0.00737802 0)
(0.0660381 -0.00741812 0)
(0.0668668 -0.00735098 1.23777e-20)
(0.0673338 -0.00735424 1.0455e-25)
(0.0682396 -0.00732193 -2.08731e-25)
(0.0687211 -0.00727357 1.4174e-20)
(0.0696056 -0.00727831 -1.08757e-25)
(0.0702713 -0.00717958 3.03999e-20)
(0.0709396 -0.00717427 -3.175e-20)
(0.071839 -0.00709491 0)
(0.0723964 -0.00701599 -3.36618e-20)
(0.0733019 -0.00700656 1.32237e-27)
(0.0741856 -0.00685579 -3.62284e-20)
(0.0747419 -0.00678229 6.93826e-26)
(0.075759 -0.00674144 7.79886e-20)
(0.0766871 -0.00655349 7.84691e-26)
(0.077278 -0.00645268 -7.72147e-26)
(0.0783709 -0.00638592 0)
(0.0791381 -0.00612175 4.48337e-20)
(0.079571 -0.00596606 -9.28017e-20)
(0.0804313 -0.00583449 -9.48654e-26)
(0.0812911 -0.0055436 -5.05291e-20)
(0.0819765 -0.00532307 -5.24847e-20)
(0.0830557 -0.00515043 5.50166e-20)
(0.0843007 -0.00485608 1.0733e-25)
(0.0853208 -0.00453284 0)
(0.0862684 -0.0042865 0)
(0.0876881 -0.00397307 3.31177e-20)
(0.0889093 -0.00349896 0)
(0.0896874 -0.00317508 0)
(0.0912809 -0.00283043 -6.27625e-26)
(0.092681 -0.0021774 -2.01942e-20)
(0.0932589 -0.00178087 2.11709e-20)
(0.0950457 -0.00136863 -4.38378e-26)
(0.0965322 -0.000535227 -5.94029e-21)
(0.0970518 -8.24612e-05 -7.82758e-22)
(0.0990485 0.000483072 2.5064e-26)
(0.100442 0.00143812 -1.40956e-20)
(0.101183 0.00192742 1.40699e-26)
(0.103514 0.00281943 3.21818e-20)
(0.104013 0.00371421 -3.34443e-20)
(0.10611 0.00425044 -3.67654e-20)
(0.107994 0.00574908 -7.6315e-20)
(0.1082 0.00626345 4.10804e-20)
(0.110993 0.00753084 0)
(0.11091 0.00851748 -9.20749e-20)
(0.113845 0.00952994 -3.77829e-25)
(0.113843 0.0110117 0)
(0.11668 0.0117847 0)
(0.116855 0.0137421 -2.36043e-19)
(0.119208 0.0142995 1.01635e-24)
(0.119941 0.016703 -1.35407e-19)
(0.121381 0.0170972 0)
(0.123117 0.0198788 3.14628e-19)
(0.123097 0.0202029 -8.98232e-20)
(0.126296 0.0232068 1.44053e-24)
(0.124444 0.0236778 -1.01284e-19)
(0.129163 0.0265307 -1.10285e-19)
(0.126232 0.0277816 -1.1387e-19)
(0.131103 0.0295137 0)
(0.132103 0.0336187 -1.31716e-19)
(0.130044 0.0331049 0)
(0.138094 0.0386961 1.58531e-19)
(0.131041 0.0386952 1.62313e-19)
(0.13939 0.041166 0)
(0.146046 0.0499978 0)
(0.135627 0.0467136 0)
(0.149046 0.052166 6.97028e-24)
(0.155895 0.0631516 -7.47392e-24)
(0.139892 0.056708 -1.22057e-19)
(0.157728 0.0639961 0)
(0.16641 0.080336 -1.4336e-19)
(0.147728 0.0714711 1.52169e-19)
(0.164476 0.0796117 -1.76874e-19)
(0.174806 0.0955645 1.78253e-19)
(0.173671 0.102349 7.90494e-25)
(0.153133 0.0902057 -9.53903e-20)
(0.190536 0.11275 -1.80781e-23)
(0.198154 0.142576 -1.06235e-19)
(0.176069 0.130371 -1.23281e-19)
(0.164816 0.121903 1.20939e-19)
(0.192303 0.14289 -1.52442e-19)
(0.215387 0.192787 0)
(0.182122 0.177361 -3.5094e-23)
(0.180005 0.175718 -7.83694e-20)
(0.154877 0.150809 0)
(0.21008 0.207595 0)
(0.215017 0.277015 4.03551e-20)
(0.168942 0.235928 -4.01608e-23)
(0.158035 0.220422 4.34468e-23)
(0.153757 0.21529 0)
(0.13877 0.193136 0)
(0.185959 0.265524 -5.39156e-23)
(0.185136 0.365651 -2.4434e-20)
(0.131177 0.309925 2.26011e-20)
(0.114582 0.27167 2.21312e-20)
(0.105233 0.250073 0)
(0.101649 0.24182 1.18393e-20)
(0.0990699 0.235528 1.23358e-20)
(0.100499 0.239877 0)
(0.0914839 0.2148 0)
(0.13604 0.353615 0)
(0.0885704 0.451957 2.64746e-21)
(0.0474228 0.336437 8.05028e-24)
(0.0421624 0.298985 -9.00502e-24)
(0.0370295 0.266677 0)
(0.0350134 0.252093 0)
(0.0330833 0.239325 1.65401e-21)
(0.0319831 0.231587 0)
(0.0310902 0.225572 -3.83096e-22)
(0.0305151 0.221613 7.48803e-22)
(0.0301185 0.219013 0)
(0.0299182 0.217756 0)
(0.0298346 0.217391 -7.40572e-22)
(0.0299277 0.2182 -7.60771e-22)
(0.0301688 0.220033 -6.17739e-24)
(0.0306065 0.2231 0)
(0.0312668 0.227781 2.23126e-22)
(0.0323831 0.236578 2.23685e-22)
(0.0340886 0.251474 -1.52656e-23)
(0.0354104 0.265835 3.22103e-23)
(0.0378197 0.331297 -2.6958e-23)
(0.0159318 0.478998 9.2839e-24)
(-0.0476093 0.501622 0)
(-0.0467408 0.384123 2.59219e-24)
(-0.0431753 0.345556 -1.71741e-22)
(-0.0390252 0.303445 2.46426e-22)
(-0.0358238 0.274749 0)
(-0.0330368 0.25043 3.74697e-22)
(-0.0306569 0.230583 -1.18748e-23)
(-0.0285863 0.21368 0)
(-0.0267743 0.199188 -9.09727e-22)
(-0.0251755 0.186583 -9.54517e-22)
(-0.0237577 0.175539 1.45409e-23)
(-0.0224958 0.165804 0)
(-0.0213723 0.157203 0)
(-0.0203765 0.149628 0)
(-0.0195091 0.14305 0)
(-0.0187776 0.137513 1.85511e-21)
(-0.0181648 0.133015 -1.37898e-23)
(-0.0176834 0.129695 0)
(-0.0173781 0.127394 1.66564e-21)
(-0.0165978 0.125751 -3.14193e-21)
(-0.0374998 0.182057 2.49952e-21)
(-0.0700886 0.177319 2.37912e-23)
(-0.0436999 0.103863 0)
(-0.0396607 0.0950239 -1.63024e-20)
(-0.0322933 0.0767369 -1.57182e-20)
(-0.0296997 0.0708208 1.53867e-20)
(-0.0260525 0.061978 -1.47459e-20)
(-0.0242195 0.0576532 0)
(-0.023102 0.0550688 0)
(-0.0311936 0.0611305 0)
(-0.0304813 0.0434488 0)
(-0.0174561 0.0243129 0)
(-0.0139272 0.0194861 4.82814e-20)
(-0.00903414 0.012572 -4.41741e-23)
(-0.00605813 0.00847243 -4.27118e-20)
(-0.00199135 0.00252327 -3.96842e-20)
(0.00368311 -0.00357562 -7.45298e-20)
(0.00788618 -0.00771783 -6.91571e-20)
(0.0120788 -0.0117776 0)
(0.0156997 -0.0153222 0)
(0.0239811 -0.021374 5.45549e-20)
(0.0272442 -0.0202686 -9.6173e-20)
(0.0279281 -0.0206523 9.12945e-20)
(0.0316012 -0.0233991 2.03719e-23)
(0.0393899 -0.0283006 0)
(0.0437363 -0.0258795 -6.33816e-20)
(0.0407538 -0.0239921 6.16465e-20)
(0.0476891 -0.0280892 2.64807e-23)
(0.052322 -0.0285897 9.6719e-20)
(0.0549205 -0.0265852 0)
(0.0538274 -0.0260299 7.90091e-20)
(0.0626851 -0.0302535 -6.65009e-25)
(0.0650167 -0.0263784 0)
(0.0626931 -0.0254026 -5.64817e-20)
(0.0706502 -0.0286111 2.80943e-25)
(0.0725678 -0.0253993 0)
(0.0712104 -0.0245163 0)
(0.0777927 -0.0266271 6.69047e-20)
(0.0788923 -0.0232998 0)
(0.07802 -0.0230284 0)
(0.0832247 -0.02332 0)
(0.0823276 -0.0209546 -1.15471e-24)
(0.0847212 -0.0215566 -3.58338e-20)
(0.0872378 -0.0196394 2.6871e-20)
(0.0868209 -0.019101 -2.72278e-20)
(0.0906143 -0.0186121 -2.0956e-20)
(0.0903766 -0.0171916 2.30574e-25)
(0.0926435 -0.0170221 1.64897e-20)
(0.0933922 -0.0153261 1.24966e-20)
(0.0946229 -0.015276 2.54583e-20)
(0.0960539 -0.0135288 0)
(0.0964284 -0.013426 -1.8529e-20)
(0.0980549 -0.0117615 -1.06941e-25)
(0.097987 -0.0115206 -2.50279e-20)
(0.0995075 -0.0100497 0)
(0.0992665 -0.00959903 2.12177e-26)
(0.100508 -0.0084129 -2.03136e-26)
(0.10023 -0.00769523 9.04656e-26)
(0.101079 -0.00685735 0)
(0.100659 -0.00582603 0)
(0.101378 -0.00539557 1.63481e-22)
(0.101315 -0.00405826 8.46356e-22)
(0.100931 -0.00360247 4.60624e-22)
(0.101376 -0.00276056 -2.44106e-21)
(0.100616 -0.00191601 0)
(0.100804 -0.00144221 6.53197e-22)
(0.100547 -0.000489999 2.87648e-27)
(0.0997345 8.5542e-05 4.86769e-23)
(0.0999107 0.000554806 4.30138e-27)
(0.0993629 0.00143108 9.86066e-22)
(0.0985169 0.00188201 -1.72829e-21)
(0.0985386 0.00231572 -3.36285e-27)
(0.0979242 0.00303674 3.96489e-21)
(0.0970924 0.00343781 3.54023e-21)
(0.0969183 0.00381476 -7.04209e-27)
(0.0963578 0.00436628 -3.74128e-21)
(0.0955673 0.004749 -3.44113e-21)
(0.0952006 0.00505826 0)
(0.0947501 0.00545845 0)
(0.0940382 0.00583184 -6.45097e-21)
(0.0935177 0.00607294 -3.95156e-26)
(0.0932105 0.0063568 5.91182e-21)
(0.0925709 0.0067153 -5.82361e-21)
(0.0919404 0.0068938 1.01914e-20)
(0.0917681 0.00709909 9.6836e-27)
(0.0911839 0.00743021 0)
(0.0905299 0.00755957 -4.12084e-21)
(0.0903803 0.00772408 0)
(0.0898417 0.00799487 -3.91209e-21)
(0.0892173 0.00809615 -3.06207e-21)
(0.0890723 0.00823188 2.48219e-26)
(0.0885203 0.00846146 2.72888e-21)
(0.0879893 0.00852744 -1.76889e-21)
(0.0877842 0.00866996 -3.27339e-27)
(0.0872056 0.00881952 1.14479e-21)
(0.086889 0.00887772 0)
(0.0865121 0.00904637 0)
(0.0859575 0.00909819 4.6344e-22)
(0.0857638 0.00920247 -7.26782e-22)
(0.0851465 0.00929999 -5.01895e-27)
(0.0849619 0.00934052 -1.73748e-26)
(0.0843776 0.00947843 6.53704e-27)
(0.0840912 0.00947451 -2.74331e-21)
(0.0835862 0.00961056 1.04654e-26)
(0.0832349 0.00959458 -3.91033e-21)
(0.08275 0.00971314 -3.8186e-21)
(0.0823971 0.00968921 -5.26228e-21)
(0.0819073 0.00980484 0)
(0.081522 0.00975865 -3.44185e-21)
(0.0811212 0.00988586 3.45629e-21)
(0.0806617 0.00983705 -4.37448e-21)
(0.0804594 0.00993478 -4.5503e-21)
(0.0799091 0.00991766 1.07468e-20)
(0.0797701 0.00995292 -8.82612e-26)
(0.0792442 0.0099995 6.53172e-21)
(0.0789826 0.00996631 -3.73947e-21)
(0.0786735 0.0100469 -1.21647e-25)
(0.0781247 0.0100116 4.55851e-21)
(0.0780283 0.0100053 0)
(0.0775759 0.010087 -5.43905e-21)
(0.0770704 0.0100209 6.15937e-21)
(0.0769948 0.0100218 6.69116e-21)
(0.0765009 0.0100795 2.19601e-25)
(0.0759285 0.0100036 0)
(0.0757885 0.00998525 0)
(0.0752816 0.0100224 0)
(0.0747495 0.0099696 5.32504e-21)
(0.0744588 0.00993057 -3.49419e-25)
(0.0741557 0.00992144 -3.1587e-21)
(0.0736623 0.00993247 -1.12475e-26)
(0.0732072 0.00987105 4.52088e-25)
(0.0729628 0.00983777 0)
(0.0726759 0.00982918 4.43621e-21)
(0.0722202 0.00983303 2.39527e-21)
(0.0718278 0.00977978 2.62649e-21)
(0.0715718 0.0097443 2.83575e-21)
(0.0713703 0.00971769 -3.08354e-21)
(0.0710464 0.00973881 3.31684e-21)
(0.0706234 0.00969657 3.6126e-21)
(0.0704289 0.00966935 -9.47122e-25)
(0.0701895 0.00963666 0)
(0.0700661 0.00961991 0)
(0.0698423 0.00963156 0)
(0.0695571 0.00961782 0)
(0.0693828 0.00959343 -2.8712e-21)
(0.0692716 0.00957801 -1.54809e-21)
(0.0691676 0.00956366 1.63638e-24)
(0.0691444 0.00956058 1.79434e-21)
(0.0689971 0.00956899 0)
(0.068718 0.00955507 0)
(0.0685331 0.00952938 -1.12033e-21)
(0.0684312 0.00951476 1.20393e-21)
(0.0683477 0.00950326 1.29311e-21)
(0.0683229 0.00950014 -1.38759e-21)
(0.0683962 0.00951112 0)
(0.0685985 0.00955174 0)
(0.0687496 0.00960278 0)
(0.0690024 0.00964024 -9.10531e-22)
(0.069414 0.00969716 0)
(0.0698874 0.00976388 0)
(0.0704495 0.00984317 0)
(0.0711163 0.00993737 0)
(0.0718954 0.0100475 0)
(0.0728266 0.0101802 0)
(0.0738716 0.0103422 -1.40596e-21)
(0.0750379 0.010521 0)
(0.0764447 0.0107241 0)
(0.0781322 0.0109667 -4.10474e-22)
(0.0801286 0.0112563 6.63173e-24)
(0.0824946 0.0116018 -6.98897e-24)
(0.0853712 0.0120284 0)
(0.08878 0.0125338 -2.43136e-22)
(0.0933063 0.0132399 7.61756e-24)
(0.0979358 0.0139063 -2.38114e-22)
(0.106836 0.0154813 4.69117e-22)
(0.111055 0.0158402 2.25632e-22)
(0.135615 0.0210362 -6.68922e-24)
(0.12562 0.0153455 -9.60045e-24)
(0.19985 0.0731277 -6.00477e-23)
(0.0583176 0.0400084 -1.00107e-22)
(-0.00851841 -0.0960358 3.58537e-25)
(0.00112032 -0.030567 4.77395e-25)
(-0.000422878 -0.0386876 -8.04597e-26)
(-9.46647e-05 -0.0307694 0)
(-0.00023258 -0.0270537 -2.9862e-28)
(-0.000194467 -0.022605 4.52776e-27)
(-0.00018318 -0.0190662 3.2877e-27)
(-0.000162821 -0.0159433 -8.01548e-27)
(-0.000149379 -0.0132151 -7.6561e-28)
(-0.00014073 -0.010728 0)
(-0.000136506 -0.00836869 4.86684e-28)
(-0.000136217 -0.00603493 8.69552e-27)
(-0.00014054 -0.00361467 -8.23624e-27)
(-0.000151406 -0.000977439 -7.64836e-27)
(-0.000171012 0.00204698 7.62889e-27)
(-0.00020623 0.0057302 -9.55993e-29)
(-0.000255636 0.0103321 0)
(-0.000339911 0.0165744 0)
(-0.000256061 0.0231676 -1.78489e-27)
(-0.000335841 0.033746 -2.77754e-26)
(0.00106497 0.029707 2.73781e-26)
(-0.00627194 0.0803081 0)
(0.0520146 -0.0448434 8.52761e-23)
(0.329222 -0.100123 -1.54316e-24)
(0.250477 -0.0442719 1.51609e-22)
(0.25353 -0.0444056 0)
(0.217563 -0.0351309 2.15257e-22)
(0.208177 -0.0323724 0)
(0.192815 -0.0291906 0)
(0.183501 -0.0271981 5.05061e-22)
(0.17498 -0.0255839 -2.47685e-22)
(0.168156 -0.0243334 1.66456e-23)
(0.16239 -0.023317 5.04964e-22)
(0.157571 -0.0224922 -4.93989e-22)
(0.153493 -0.0218114 -4.95201e-22)
(0.150048 -0.021247 -1.48695e-23)
(0.147158 -0.0207759 -7.18618e-24)
(0.144733 -0.0203691 -8.69905e-22)
(0.142619 -0.020018 -8.3451e-22)
(0.140791 -0.0197349 0)
(0.139274 -0.0195017 1.49683e-21)
(0.138006 -0.0193086 0)
(0.136968 -0.019151 -1.32766e-21)
(0.136127 -0.0190241 0)
(0.135456 -0.0189232 -1.16278e-21)
(0.135045 -0.018852 -4.26045e-24)
(0.134799 -0.0187606 1.01496e-21)
(0.13449 -0.0186949 1.90401e-21)
(0.134324 -0.0186688 -1.76939e-21)
(0.134274 -0.0186593 -1.64804e-21)
(0.134347 -0.0186673 -1.52383e-21)
(0.134512 -0.0186894 1.41564e-21)
(0.134834 -0.0187305 -3.92973e-21)
(0.135318 -0.0187485 0)
(0.135734 -0.0187521 3.50737e-26)
(0.136119 -0.0188049 2.0678e-21)
(0.136656 -0.0188785 0)
(0.137228 -0.0189576 3.50593e-21)
(0.137939 -0.0190545 -3.21818e-21)
(0.138828 -0.0191261 -3.05891e-26)
(0.139635 -0.0191569 2.71345e-21)
(0.140304 -0.019249 -1.22821e-24)
(0.141178 -0.0193686 0)
(0.142009 -0.0194826 -4.14295e-21)
(0.143229 -0.0196163 -9.33172e-25)
(0.144279 -0.0196325 3.43544e-21)
(0.145144 -0.0197497 0)
(0.146131 -0.0198846 4.44529e-26)
(0.147373 -0.0200511 -2.52972e-21)
(0.148706 -0.0201001 4.58184e-21)
(0.149759 -0.0201829 -4.46893e-25)
(0.150773 -0.02032 4.37587e-25)
(0.152178 -0.0205072 -4.10762e-25)
(0.153627 -0.0205443 -2.90962e-21)
(0.154755 -0.0206318 0)
(0.155901 -0.0207844 4.5282e-21)
(0.157491 -0.0209566 3.87332e-21)
(0.159007 -0.0209425 6.78386e-21)
(0.1599 -0.0210602 2.91573e-21)
(0.161652 -0.0212893 -3.56608e-26)
(0.163266 -0.0212448 2.01392e-21)
(0.16419 -0.0213423 0)
(0.166037 -0.0215807 -2.46778e-21)
(0.167692 -0.0214969 -1.92519e-21)
(0.168686 -0.0216111 -1.33361e-21)
(0.170675 -0.0217889 -6.86772e-22)
(0.17211 -0.0217126 3.07621e-22)
(0.173501 -0.0218873 -1.67591e-25)
(0.175463 -0.0218874 1.34031e-21)
(0.176557 -0.021908 0)
(0.178681 -0.0220574 3.02114e-21)
(0.17991 -0.0219367 -3.27197e-21)
(0.181907 -0.0221627 4.40808e-21)
(0.183475 -0.0219593 -7.78598e-26)
(0.185164 -0.0221607 -1.20758e-26)
(0.18694 -0.021979 8.18544e-26)
(0.188586 -0.0221318 1.29379e-20)
(0.190433 -0.0219481 -1.2806e-20)
(0.192099 -0.0220831 1.02138e-25)
(0.194074 -0.021863 0)
(0.195614 -0.0219701 -1.25245e-25)
(0.197866 -0.0217498 1.61023e-20)
(0.199178 -0.0217515 1.24448e-25)
(0.20163 -0.0216316 0)
(0.202972 -0.0214806 1.82913e-20)
(0.205371 -0.0214716 -3.81539e-20)
(0.207186 -0.021166 -3.89778e-20)
(0.209017 -0.0211356 4.05868e-20)
(0.21143 -0.0208786 0)
(0.212959 -0.020636 1.41846e-25)
(0.215405 -0.0205865 -4.46277e-20)
(0.217757 -0.0201217 4.56832e-20)
(0.219277 -0.0198959 0)
(0.221999 -0.0197516 -4.88293e-20)
(0.224451 -0.019179 0)
(0.226053 -0.0188734 0)
(0.22896 -0.0186535 -1.04873e-25)
(0.231026 -0.0178695 -5.54523e-20)
(0.232248 -0.0174121 1.14702e-19)
(0.23459 -0.0170146 0)
(0.236887 -0.0161522 1.2122e-25)
(0.238729 -0.0154996 -6.60042e-26)
(0.24156 -0.0149763 1.25296e-25)
(0.244781 -0.0140972 6.99811e-20)
(0.247421 -0.0131422 -1.41509e-25)
(0.249889 -0.0124134 1.41576e-25)
(0.253522 -0.0114826 3.97118e-20)
(0.256609 -0.0100957 -8.01886e-26)
(0.258634 -0.00915308 -3.48104e-27)
(0.262655 -0.00813896 -4.554e-20)
(0.266116 -0.00624865 2.37122e-20)
(0.267634 -0.00510781 2.47782e-20)
(0.272066 -0.00391102 1.31799e-20)
(0.275664 -0.00152461 6.86229e-21)
(0.277026 -0.000231725 1.80253e-21)
(0.281866 0.00138233 0)
(0.285181 0.00408746 0)
(0.287052 0.00547418 0)
(0.29249 0.00797425 6.90364e-26)
(0.293774 0.010494 -7.10258e-26)
(0.29869 0.0119763 0)
(0.302943 0.0161335 8.3938e-20)
(0.303582 0.0175814 -4.5052e-20)
(0.309803 0.02103 -9.57746e-20)
(0.3098 0.0237975 0)
(0.316234 0.0264845 0)
(0.316399 0.0306098 0)
(0.322507 0.0325878 0)
(0.322991 0.0379908 1.24642e-19)
(0.328012 0.0393633 -1.04286e-24)
(0.329548 0.0459021 1.41133e-19)
(0.332667 0.0468768 -1.21579e-24)
(0.336078 0.0542775 -3.23603e-19)
(0.336273 0.0552097 1.30541e-24)
(0.342398 0.0629345 0)
(0.338992 0.0645156 -1.02776e-19)
(0.347956 0.0714992 1.10521e-19)
(0.342397 0.075357 -1.14177e-19)
(0.351986 0.0792905 0)
(0.353137 0.0898839 0)
(0.34991 0.0891257 1.45816e-19)
(0.363933 0.102024 -1.52995e-19)
(0.351138 0.103671 0)
(0.367501 0.108672 1.80388e-19)
(0.376843 0.129056 -1.78464e-19)
(0.359466 0.1238 0)
(0.384332 0.134741 0)
(0.391969 0.158811 2.13541e-19)
(0.366956 0.148701 7.39468e-24)
(0.400248 0.162699 -1.33313e-19)
(0.407783 0.197013 0)
(0.379683 0.183609 1.35775e-19)
(0.408432 0.198086 3.04596e-19)
(0.420086 0.23004 0)
(0.414043 0.243859 1.90138e-23)
(0.386408 0.227622 8.00472e-20)
(0.443431 0.263006 -4.81436e-23)
(0.440945 0.317871 8.42632e-20)
(0.408829 0.302331 4.62778e-23)
(0.395757 0.292804 1.75279e-24)
(0.436751 0.325694 1.11738e-24)
(0.449968 0.403555 -5.22113e-23)
(0.400737 0.389857 -5.33743e-20)
(0.397064 0.387126 5.91465e-20)
(0.368871 0.359636 3.29831e-23)
(0.441458 0.437833 -3.19801e-23)
(0.415574 0.537307 2.81039e-23)
(0.352893 0.491074 -3.16114e-23)
(0.339586 0.472861 -3.09161e-20)
(0.333476 0.466295 0)
(0.31991 0.446923 0)
(0.37743 0.542778 0)
(0.335614 0.665781 3.6113e-23)
(0.257911 0.604166 -1.62432e-20)
(0.237264 0.558833 -1.59947e-20)
(0.225053 0.532826 -1.47735e-24)
(0.220106 0.522611 -8.62919e-21)
(0.217362 0.516447 -1.77528e-20)
(0.219409 0.523623 -3.63132e-23)
(0.21447 0.513516 8.27941e-23)
(0.25595 0.670554 -6.50128e-23)
(0.148203 0.767059 2.0448e-23)
(0.0965422 0.64231 0)
(0.0873829 0.598422 6.96699e-22)
(0.0798531 0.559667 1.13635e-23)
(0.076526 0.540274 -9.12638e-24)
(0.0735946 0.523526 -5.72745e-22)
(0.071793 0.512803 -1.76732e-23)
(0.070354 0.504495 2.87284e-22)
(0.069373 0.498919 -2.7786e-22)
(0.0686519 0.49529 1.59939e-23)
(0.0682186 0.493573 -8.06424e-24)
(0.0679656 0.493112 -8.14705e-26)
(0.0679407 0.494654 4.97627e-22)
(0.068101 0.498017 7.87111e-24)
(0.0684012 0.503844 1.20502e-22)
(0.0686187 0.51322 1.59493e-23)
(0.0684988 0.529378 -3.14378e-22)
(0.0671665 0.554524 1.50846e-22)
(0.0631338 0.589228 1.86531e-23)
(0.0574972 0.665591 6.99519e-23)
(0.0279017 0.751955 8.39318e-23)
(-0.0586324 0.751602 -4.04306e-25)
(-0.0616175 0.662785 2.15742e-23)
(-0.0674309 0.620641 9.40346e-23)
(-0.0663996 0.578051 -1.35778e-22)
(-0.0655332 0.546039 2.15849e-24)
(-0.0638792 0.517815 -1.35367e-23)
(-0.0621296 0.493536 -2.56858e-22)
(-0.0603009 0.471874 0)
(-0.0584852 0.452402 0)
(-0.0567087 0.434668 0)
(-0.0549938 0.418413 0)
(-0.0533547 0.403447 -7.17571e-22)
(-0.0518066 0.389667 2.35334e-23)
(-0.050371 0.377054 -2.31015e-23)
(-0.0490829 0.365702 0)
(-0.0479858 0.355844 0)
(-0.0471115 0.347886 0)
(-0.0466202 0.342645 0)
(-0.0469313 0.341008 4.31908e-25)
(-0.049283 0.349226 2.81976e-21)
(-0.0868903 0.410818 0)
(-0.147738 0.374825 0)
(-0.109779 0.269762 0)
(-0.10252 0.249386 5.63498e-24)
(-0.0881253 0.212324 1.6363e-20)
(-0.0816419 0.196636 -1.65795e-20)
(-0.0732271 0.175737 1.64476e-20)
(-0.0684387 0.163651 1.16829e-24)
(-0.0656595 0.155869 -3.15682e-20)
(-0.0812522 0.160331 0)
(-0.0793101 0.11412 3.09045e-20)
(-0.0501978 0.0712723 -6.24988e-20)
(-0.0400308 0.0567699 -6.24068e-20)
(-0.026652 0.0376952 0)
(-0.0176719 0.0252421 5.75889e-20)
(-0.00599789 0.00820744 -4.86948e-23)
(0.0101803 -0.00947756 1.03263e-19)
(0.0223175 -0.0215387 1.95392e-19)
(0.0345438 -0.0334012 9.16765e-20)
(0.0450594 -0.0436704 -4.06912e-23)
(0.0672731 -0.0598526 -1.54457e-19)
(0.0784501 -0.058215 -1.37822e-19)
(0.0818559 -0.060414 3.12186e-23)
(0.0920425 -0.0679656 -5.74065e-23)
(0.112467 -0.0808148 -1.06763e-19)
(0.127046 -0.0750679 -2.21143e-23)
(0.121005 -0.0711749 4.06974e-23)
(0.138158 -0.0812585 -1.89369e-23)
(0.151829 -0.082953 -1.55839e-23)
(0.160944 -0.0778877 5.93676e-25)
(0.15887 -0.0767479 1.06609e-19)
(0.180497 -0.0870866 -7.29652e-24)
(0.189765 -0.0769914 9.52005e-24)
(0.184644 -0.0747709 -9.4783e-26)
(0.203521 -0.0823857 4.95359e-25)
(0.210931 -0.0738417 -3.29766e-24)
(0.208081 -0.0716116 9.75223e-20)
(0.223657 -0.0765385 -8.28096e-20)
(0.228485 -0.0674948 2.07887e-24)
(0.226472 -0.0668326 -3.85474e-24)
(0.239133 -0.0669969 2.08534e-25)
(0.238305 -0.0606684 -4.59141e-20)
(0.243839 -0.0620354 -4.33078e-20)
(0.250745 -0.0564478 -3.21697e-20)
(0.250055 -0.0550118 -3.25745e-20)
(0.259237 -0.0532407 -6.88603e-25)
(0.259323 -0.0493352 -2.19929e-20)
(0.264704 -0.0486352 -1.93406e-20)
(0.267012 -0.0438201 5.73068e-25)
(0.269921 -0.0435773 0)
(0.273677 -0.0385472 -1.572e-25)
(0.274629 -0.0382401 1.49502e-25)
(0.278683 -0.0334283 0)
(0.278639 -0.0327636 1.43774e-20)
(0.282325 -0.0285148 0)
(0.281896 -0.0272628 0)
(0.284849 -0.0238453 1.54477e-26)
(0.284332 -0.0218337 -4.13772e-21)
(0.286322 -0.019428 1.07684e-26)
(0.285456 -0.0165252 0)
(0.28709 -0.0152822 -1.84453e-22)
(0.287048 -0.0115029 0)
(0.286158 -0.0102163 -3.71361e-27)
(0.287182 -0.00782427 2.77671e-21)
(0.285453 -0.00543931 0)
(0.285839 -0.00409237 -3.36962e-27)
(0.285265 -0.00139516 5.10462e-27)
(0.283344 0.000240446 -2.23232e-27)
(0.283701 0.00157246 4.85341e-22)
(0.28243 0.00406285 -5.5852e-26)
(0.280395 0.00535413 -3.93683e-27)
(0.280388 0.0065865 2.10511e-21)
(0.278934 0.00864571 -4.57125e-21)
(0.276912 0.00980233 -4.09515e-21)
(0.27644 0.0108783 -1.6005e-26)
(0.275087 0.0124614 1.60729e-26)
(0.27315 0.0135709 4.00564e-21)
(0.272218 0.0144613 3.92561e-21)
(0.271106 0.0156151 -7.88826e-21)
(0.269352 0.0167012 -7.55668e-21)
(0.268045 0.0174045 -7.0308e-21)
(0.267261 0.0182243 0)
(0.265681 0.0192701 1.64311e-25)
(0.264097 0.0198006 -7.49478e-26)
(0.263632 0.0203923 2.26689e-26)
(0.262186 0.0213614 -1.13775e-26)
(0.260535 0.021754 4.89665e-21)
(0.260121 0.0222286 -9.31347e-27)
(0.258781 0.0230256 0)
(0.257195 0.0233379 3.65801e-21)
(0.256794 0.0237304 6.90306e-21)
(0.255414 0.0244116 3.26859e-21)
(0.254056 0.02462 2.12495e-21)
(0.253507 0.0250353 0)
(0.252051 0.0254886 0)
(0.251223 0.0256665 0)
(0.250258 0.0261661 0)
(0.248844 0.026337 -5.57078e-22)
(0.248322 0.0266425 1.33982e-26)
(0.24676 0.0269494 -8.15065e-27)
(0.246258 0.0270708 2.02695e-21)
(0.244775 0.0274932 1.58577e-26)
(0.244021 0.0274914 -2.80519e-26)
(0.242725 0.0279045 -2.54726e-26)
(0.241813 0.0278715 -4.76648e-21)
(0.24056 0.0282331 3.68162e-26)
(0.239643 0.0281772 -6.32658e-26)
(0.238378 0.0285313 5.51766e-26)
(0.237375 0.0284124 4.94995e-27)
(0.236337 0.0287966 -1.37743e-25)
(0.235136 0.0286732 7.52866e-26)
(0.234569 0.0289592 9.06568e-26)
(0.233154 0.0289337 -1.43364e-25)
(0.232736 0.0290346 -7.25946e-21)
(0.231397 0.029194 0)
(0.230668 0.0291032 0)
(0.22985 0.0293467 0)
(0.228431 0.029269 -1.12477e-20)
(0.228109 0.0292456 0)
(0.226976 0.0295052 -2.1213e-25)
(0.225635 0.0293334 2.24907e-25)
(0.22537 0.0293299 -4.13136e-21)
(0.224139 0.0295221 0)
(0.222643 0.0293274 3.11496e-25)
(0.222215 0.029271 -3.30735e-25)
(0.220964 0.0294062 -5.94906e-21)
(0.219592 0.0292794 6.60968e-21)
(0.218795 0.0291736 4.3411e-25)
(0.218003 0.0291574 3.92562e-21)
(0.21678 0.0292174 -1.39903e-26)
(0.2156 0.0290618 5.62935e-25)
(0.21493 0.0289712 0)
(0.214195 0.0289575 0)
(0.213081 0.0289968 -2.98606e-21)
(0.212074 0.028864 -6.54839e-21)
(0.21139 0.0287702 8.57408e-25)
(0.210867 0.0287003 3.84218e-21)
(0.21009 0.0287807 -8.26255e-21)
(0.209071 0.0286909 4.49828e-21)
(0.208553 0.0286202 2.43242e-21)
(0.207967 0.0285408 2.62681e-21)
(0.207655 0.0284982 0)
(0.207156 0.0285493 0)
(0.206521 0.0285384 1.61736e-24)
(0.206104 0.0284835 1.77254e-21)
(0.205864 0.0284509 0)
(0.205662 0.0284242 0)
(0.205649 0.0284204 -2.15814e-24)
(0.205378 0.0284578 2.29924e-24)
(0.204829 0.0284526 1.26587e-21)
(0.204445 0.0284044 2.65061e-24)
(0.204264 0.0283793 -1.46006e-21)
(0.204164 0.028367 -1.55995e-21)
(0.204208 0.028379 1.66735e-21)
(0.204507 0.0284317 3.48379e-24)
(0.205132 0.028559 9.47485e-22)
(0.205725 0.028731 7.82082e-27)
(0.206542 0.0288675 1.06341e-21)
(0.207682 0.0290367 0)
(0.209019 0.0292359 -4.6566e-24)
(0.210572 0.0294687 -6.23505e-22)
(0.212372 0.0297402 0)
(0.214435 0.0300541 5.38585e-24)
(0.216826 0.0304211 7.16148e-22)
(0.219494 0.0308649 7.50626e-22)
(0.222447 0.0313622 6.03979e-24)
(0.225858 0.0319153 3.94593e-22)
(0.229808 0.0325566 0)
(0.234353 0.0333079 -4.1873e-22)
(0.239568 0.0341924 4.23441e-22)
(0.245649 0.035255 0)
(0.252599 0.0365231 1.29711e-23)
(0.261217 0.0381392 -1.30872e-23)
(0.270012 0.0399811 1.84732e-22)
(0.284945 0.0430748 -3.60077e-22)
(0.292352 0.0451333 0)
(0.324611 0.0537441 7.5777e-23)
(0.315725 0.0508415 1.37882e-23)
(0.384202 0.10835 1.8847e-22)
(0.119555 0.0697431 7.18485e-23)
(-0.0115521 -0.148497 4.24852e-23)
(-0.00389331 -0.0640949 -9.04012e-25)
(-0.00254575 -0.0753197 1.11242e-24)
(-0.00285407 -0.0604323 0)
(-0.00264562 -0.0533964 0)
(-0.00232925 -0.0455183 1.151e-27)
(-0.00200116 -0.0393983 4.51139e-28)
(-0.00175045 -0.0340696 1.38805e-27)
(-0.00157468 -0.0294486 -8.92135e-28)
(-0.00146678 -0.0252403 -2.10938e-27)
(-0.00142685 -0.0212258 -1.75599e-27)
(-0.00144637 -0.0172353 -1.86255e-27)
(-0.00153472 -0.013057 -2.11661e-26)
(-0.00171018 -0.00845106 1.96628e-26)
(-0.00200592 -0.00310125 0)
(-0.00246443 0.0034749 -8.48957e-28)
(-0.00313642 0.0117481 -2.06302e-27)
(-0.00395357 0.0230144 1.20275e-26)
(-0.00469162 0.0354153 2.10762e-27)
(-0.00411739 0.0567695 3.48245e-25)
(-0.00378838 0.0543011 0)
(-0.00561339 0.124076 2.04937e-23)
(0.107274 -0.0812962 -6.54864e-23)
(0.403572 -0.123292 -1.7087e-22)
(0.345261 -0.0683922 -1.16954e-22)
(0.345154 -0.0656404 2.19906e-23)
(0.314635 -0.0543591 -2.83064e-22)
(0.303936 -0.0496307 0)
(0.28873 -0.0455267 0)
(0.278485 -0.0425491 -3.36628e-22)
(0.269087 -0.040302 9.77049e-26)
(0.26132 -0.038526 -1.73645e-22)
(0.254604 -0.0370922 -3.47224e-22)
(0.248858 -0.0359232 3.43799e-22)
(0.243898 -0.0349566 6.8592e-22)
(0.239626 -0.0341516 -2.05737e-23)
(0.235963 -0.0334731 9.94783e-24)
(0.232809 -0.0328829 6.06642e-22)
(0.230029 -0.0323754 5.91852e-22)
(0.227602 -0.031964 8.8382e-24)
(0.225545 -0.0316205 -5.39431e-22)
(0.223798 -0.0313336 0)
(0.222338 -0.0310964 9.69885e-22)
(0.221134 -0.0309022 -7.13642e-24)
(0.22017 -0.030746 6.7393e-24)
(0.219516 -0.0306219 -8.0324e-22)
(0.219059 -0.0304683 -5.95082e-24)
(0.218562 -0.0303621 -1.42092e-21)
(0.218261 -0.0303117 1.32716e-21)
(0.218119 -0.0302854 0)
(0.218142 -0.0302833 2.30191e-21)
(0.218305 -0.0303027 0)
(0.218688 -0.0303466 9.92754e-22)
(0.219258 -0.0303474 -3.58449e-24)
(0.219753 -0.0303336 -3.39439e-21)
(0.220236 -0.0303995 -1.56645e-21)
(0.220922 -0.0304932 -2.50404e-26)
(0.221668 -0.0305959 -1.33153e-21)
(0.222615 -0.0307228 -1.17998e-24)
(0.223771 -0.0308008 1.10553e-24)
(0.224819 -0.0308211 -2.05393e-21)
(0.225714 -0.030945 -9.29267e-25)
(0.226881 -0.0311045 -1.71574e-21)
(0.228014 -0.0312589 3.12817e-21)
(0.229641 -0.0314268 -7.03263e-25)
(0.231031 -0.0314186 7.91101e-26)
(0.232198 -0.0315775 -5.61596e-25)
(0.233541 -0.0317607 5.82096e-25)
(0.235224 -0.0319835 0)
(0.236998 -0.0320174 -3.4199e-21)
(0.238412 -0.0321163 -3.06034e-21)
(0.239793 -0.0323026 -3.42826e-25)
(0.241693 -0.0325532 2.87638e-25)
(0.243624 -0.0325655 -2.69453e-25)
(0.245137 -0.0326697 -2.24228e-25)
(0.24669 -0.0328755 3.13927e-25)
(0.248828 -0.0330963 0)
(0.250834 -0.0330269 -2.48133e-21)
(0.252042 -0.033186 1.22017e-25)
(0.254393 -0.0334904 -1.74621e-21)
(0.256523 -0.033371 -1.46053e-21)
(0.257764 -0.0334969 -2.41063e-21)
(0.260227 -0.0338119 1.77895e-21)
(0.262404 -0.0336311 1.38361e-21)
(0.263731 -0.0337799 0)
(0.266357 -0.0339949 4.90682e-22)
(0.268248 -0.0338344 -2.19045e-22)