/*--------------------------------*- C++ -*----------------------------------*\
| =========                 |                                                 |
| \\      /  F ield         | OpenFOAM: The Open Source CFD Toolbox           |
|  \\    /   O peration     | Version:  v2012                                 |
|   \\  /    A nd           | Website:  www.openfoam.com                      |
|    \\/     M anipulation  |                                                 |
\*---------------------------------------------------------------------------*/
FoamFile
{
    version     2.0;
    format      ascii;
    class       volScalarField;
    location    "853";
    object      yPlus;
}
// * * * * * * * * * * * * * * * * * * * * * * * * * * * * * * * * * * * * * //

dimensions      [0 0 0 0 0 0 0];


internalField   uniform 0;

boundaryField
{
    inlet
    {
        type            calculated;
        value           uniform 0;
    }
    lowerAirfoil
    {
        type            calculated;
        value           nonuniform List<scalar> 
199
(
5.3453
4.45261
4.0745
3.63279
3.30814
3.02538
2.78784
2.58184
2.40259
2.245
2.10581
1.9824
1.87291
1.77618
1.692
1.62113
1.56422
1.52182
1.48931
1.47169
2.06406
2.08325
1.27489
1.16338
0.943074
0.867034
0.758358
0.703163
0.667478
0.753759
0.581389
0.335335
0.268324
0.179196
0.128209
0.0745093
0.0800378
0.125539
0.184593
0.238844
0.348375
0.369888
0.379941
0.429959
0.528598
0.554515
0.517653
0.604484
0.650253
0.666277
0.65376
0.758548
0.765197
0.739102
0.830453
0.837924
0.8218
0.895172
0.895567
0.886008
0.938498
0.923008
0.949208
0.970608
0.965246
1.00365
0.998424
1.02178
1.02666
1.03949
1.05184
1.05564
1.07055
1.06958
1.08394
1.08098
1.09296
1.08946
1.09776
1.09266
1.09997
1.0986
1.09441
1.09875
1.09047
1.09233
1.08942
1.08081
1.0826
1.0768
1.0679
1.06813
1.06174
1.05303
1.05127
1.04549
1.03726
1.0335
1.02889
1.02154
1.01617
1.01307
1.00653
0.999996
0.99833
0.992416
0.985632
0.984219
0.978781
0.972302
0.970939
0.965348
0.959845
0.95787
0.951944
0.94872
0.944967
0.939208
0.937351
0.930975
0.929157
0.923182
0.920241
0.915115
0.911476
0.906557
0.902894
0.897936
0.893907
0.889911
0.885254
0.883491
0.877982
0.876831
0.87167
0.869196
0.866363
0.86093
0.860238
0.855933
0.850987
0.850541
0.845827
0.839987
0.838791
0.833785
0.828412
0.825639
0.822796
0.817998
0.81353
0.811372
0.808829
0.804552
0.800906
0.798776
0.797283
0.794611
0.790841
0.789589
0.787907
0.787554
0.786242
0.784316
0.783634
0.783734
0.784004
0.785216
0.78496
0.783306
0.782752
0.783253
0.784101
0.785755
0.788851
0.793732
0.798326
0.804245
0.812189
0.821118
0.83136
0.843134
0.856568
0.872161
0.889564
0.908907
0.931608
0.958259
0.989319
1.02564
1.06906
1.12006
1.18585
1.25481
1.37657
1.44578
1.74936
1.60837
2.15538
)
;
    }
    outlet
    {
        type            calculated;
        value           uniform 0;
    }
    trailingEdge
    {
        type            calculated;
        value           nonuniform List<scalar> 
24
(
0.826882
1.00026
0.389009
0.424066
0.294464
0.218981
0.156042
0.117462
0.0937363
0.0884174
0.104364
0.121961
0.141235
0.162646
0.187152
0.215931
0.250605
0.291574
0.344551
0.391146
0.489799
0.402656
1.18297
0.888623
)
;
    }
    upperAirfoil
    {
        type            calculated;
        value           nonuniform List<scalar> 
199
(
5.36602
4.24173
3.45208
3.18301
2.97726
2.84125
2.75548
2.69268
2.64684
2.61495
2.59802
2.59254
2.6025
2.628
2.67566
2.74172
2.85821
2.99259
3.29292
3.62316
4.62459
3.99503
2.65522
2.85555
2.80161
2.85624
2.93485
3.14944
3.51835
4.14676
3.42125
2.60338
2.83805
2.89689
3.0664
3.60692
3.11837
2.35549
2.68617
2.70624
3.03015
2.56432
2.21909
2.35132
2.58975
2.3708
1.93112
2.1651
2.13889
1.9727
1.77991
1.98594
1.83862
1.64619
1.82104
1.71511
1.56364
1.67449
1.58066
1.48868
1.55811
1.46145
1.48257
1.46194
1.40745
1.43408
1.37913
1.39672
1.3577
1.35671
1.33384
1.31759
1.30627
1.2803
1.27584
1.24461
1.24284
1.21049
1.21021
1.17937
1.17642
1.15531
1.13237
1.12633
1.10091
1.09253
1.07721
1.05556
1.04966
1.03358
1.01429
1.00787
0.992818
0.975637
0.967141
0.954016
0.938734
0.928463
0.917471
0.904111
0.892446
0.885233
0.876542
0.867841
0.86354
0.855926
0.844181
0.837753
0.82783
0.816824
0.81077
0.801325
0.791503
0.785479
0.77582
0.76855
0.761428
0.751852
0.746661
0.736916
0.731834
0.722974
0.71695
0.709278
0.70274
0.69562
0.689174
0.682367
0.675758
0.669835
0.661991
0.657455
0.649114
0.64511
0.637469
0.632238
0.626846
0.61913
0.615559
0.60921
0.602158
0.59891
0.59271
0.586076
0.582989
0.577203
0.571222
0.567129
0.563046
0.557589
0.552405
0.548881
0.545131
0.540176
0.535684
0.532319
0.529402
0.52568
0.521212
0.518567
0.515638
0.513639
0.510981
0.507951
0.505837
0.504285
0.502887
0.502184
0.501317
0.500103
0.499758
0.500122
0.500869
0.502247
0.504175
0.50682
0.509098
0.512231
0.516809
0.52216
0.528558
0.536178
0.545152
0.555875
0.568205
0.582309
0.599257
0.619629
0.643968
0.673178
0.708896
0.752259
0.808477
0.87178
0.98252
1.0546
1.35134
1.28196
1.8793
)
;
    }
    BaseAndTop
    {
        type            empty;
    }
}


// ************************************************************************* //
